Title="NOZZLE"
Variables="x","y","dens","velx","vely","spre","ttem","mach"
Zone T="NOZZLE" i=261,j=81,f=point 
-0.96000  0.80000  1.14556  147.80312  0.00028  92274.36627  280.60199  0.44014
-0.94000  0.80000  1.14556  147.80312  0.00028  92274.36627  280.60199  0.44014
-0.90000  0.80000  1.14374  148.50662  0.00037  92069.89026  280.42528  0.44237
-0.86000  0.80000  1.14175  149.28775  0.00052  91846.16221  280.23202  0.44485
-0.82000  0.80000  1.13946  150.20663  0.00068  91589.29667  280.01024  0.44777
-0.78000  0.80000  1.13678  151.31575  0.00083  91289.44065  279.75135  0.45128
-0.74000  0.80000  1.13365  152.65562  0.00093  90939.62982  279.44903  0.45552
-0.70000  0.80000  1.13003  154.25007  0.00098  90535.92386  279.09929  0.46057
-0.66000  0.80000  1.12591  156.10492  0.00096  90077.43558  278.70056  0.46644
-0.62000  0.80000  1.12132  158.21004  0.00089  89566.12293  278.25368  0.47311
-0.58000  0.80000  1.11629  160.54357  0.00078  89006.32079  277.76159  0.48051
-0.54000  0.80000  1.11086  163.07736  0.00065  88404.05697  277.22889  0.48857
-0.50000  0.80000  1.10511  165.78227  0.00050  87766.23692  276.66116  0.49718
-0.46000  0.80000  1.09909  168.63273  0.00035  87099.79042  276.06421  0.50627
-0.42000  0.80000  1.09286  171.61045  0.00022  86410.85270  275.44330  0.51580
-0.38000  0.80000  1.08645  174.70725  0.00010  85704.01082  274.80242  0.52571
-0.34000  0.80000  1.07988  177.92774  0.00000  84981.58978  274.14356  0.53605
-0.30000  0.80000  1.07314  181.29268  -0.00008  84242.88335  273.46601  0.54686
-0.26000  0.80000  1.06620  184.84440  -0.00015  83483.13415  272.76534  0.55829
-0.22000  0.80000  1.05894  188.65721  -0.00021  82691.88415  272.03182  0.57058
-0.18000  0.80000  1.05119  192.85834  -0.00026  81849.89854  271.24763  0.58412
-0.14000  0.80000  1.04261  197.67475  -0.00031  80922.76283  270.38105  0.59967
-0.10000  0.80000  1.03258  203.54935  -0.00035  79845.87868  269.37368  0.61865
-0.06000  0.80000  1.01975  211.48118  -0.00040  78483.14937  268.10912  0.64427
-0.02000  0.80000  1.00027  224.23835  -0.00046  76456.77533  266.27201  0.68548
0.02747  0.79405  0.91082  233.83257  -50.60609  67667.92528  258.80749  0.74183
0.07970  0.78275  0.97807  208.04073  -45.02382  74789.87642  266.38019  0.65056
0.12697  0.77252  1.00370  198.18112  -42.88998  77548.40729  269.15208  0.61653
0.17015  0.76318  1.01746  192.92360  -41.75218  79033.53744  270.59720  0.59857
0.20989  0.75458  1.02710  189.35135  -40.97912  80073.99502  271.58448  0.58642
0.24670  0.74661  1.03492  186.56817  -40.37683  80916.05807  272.36734  0.57696
0.28098  0.73919  1.04182  184.20006  -39.86435  81658.95959  273.04716  0.56893
0.31306  0.73225  1.04825  182.05765  -39.40071  82351.44731  273.67361  0.56167
0.34320  0.72573  1.05445  180.03497  -38.96295  83019.72425  274.27352  0.55482
0.37163  0.71957  1.06053  178.07110  -38.53788  83677.69297  274.86135  0.54818
0.39852  0.71375  1.06656  176.13307  -38.11837  84331.36968  275.44384  0.54164
0.42404  0.70823  1.07252  174.20717  -37.70144  84981.09078  276.02226  0.53516
0.44832  0.70298  1.07839  172.29373  -37.28718  85622.90437  276.59386  0.52873
0.47148  0.69796  1.08409  170.40312  -36.87783  86249.75589  277.15304  0.52240
0.49361  0.69318  1.08955  168.55204  -36.47702  86852.71361  277.69253  0.51623
0.51480  0.68859  1.09467  166.75996  -36.08898  87422.26184  278.20457  0.51027
0.53513  0.68419  1.09939  165.04572  -35.71779  87949.55508  278.68200  0.50459
0.55466  0.67996  1.10363  163.42488  -35.36685  88427.46906  279.11913  0.49924
0.57346  0.67589  1.10736  161.90783  -35.03841  88851.30521  279.51229  0.49426
0.59158  0.67197  1.11057  160.49907  -34.73344  89219.07987  279.86004  0.48966
0.60907  0.66819  1.11325  159.19738  -34.45169  89531.42170  280.16298  0.48542
0.62596  0.66453  1.11544  157.99663  -34.19182  89791.17358  280.42345  0.48154
0.64230  0.66100  1.11719  156.88714  -33.95172  90002.82856  280.64494  0.47797
0.65813  0.65757  1.11854  155.85693  -33.72880  90171.92445  280.83168  0.47467
0.67346  0.65425  1.11956  154.89296  -33.52024  90304.49776  280.98819  0.47160
0.68835  0.65103  1.12031  153.98223  -33.32320  90406.63833  281.11892  0.46872
0.70280  0.64790  1.12083  153.11258  -33.13506  90484.11117  281.22799  0.46598
0.71684  0.64486  1.12119  152.27308  -32.95344  90542.13359  281.31907  0.46335
0.73050  0.64191  1.12142  151.45414  -32.77626  90585.30870  281.39539  0.46080
0.74380  0.63903  1.12156  150.64749  -32.60174  90617.61501  281.45972  0.45829
0.75676  0.63623  1.12165  149.84611  -32.42835  90642.42749  281.51448  0.45581
0.76938  0.63349  1.12171  149.04407  -32.25481  90662.56507  281.56175  0.45333
0.78170  0.63083  1.12177  148.23638  -32.08004  90680.35122  281.60334  0.45084
0.79372  0.62823  1.12183  147.41883  -31.90313  90697.68109  281.64082  0.44833
0.80545  0.62569  1.12192  146.58780  -31.72329  90716.09575  281.67559  0.44577
0.81692  0.62321  1.12205  145.74001  -31.53983  90736.83436  281.70889  0.44317
0.82813  0.62078  1.12221  144.87245  -31.35209  90760.95481  281.74189  0.44050
0.83910  0.61841  1.12243  143.98217  -31.15942  90789.31220  281.77562  0.43777
0.84982  0.61609  1.12270  143.06607  -30.96116  90822.65079  281.81105  0.43496
0.86033  0.61381  1.12303  142.12073  -30.75658  90861.64602  281.84912  0.43205
0.87062  0.61159  1.12342  141.14221  -30.54481  90906.94602  281.89075  0.42905
0.88070  0.60940  1.12389  140.12584  -30.32485  90959.21120  281.93682  0.42592
0.89058  0.60727  1.12442  139.06604  -30.09549  91019.15290  281.98829  0.42266
0.90027  0.60517  1.12504  137.95600  -29.85525  91087.57356  282.04613  0.41925
0.90977  0.60311  1.12574  136.78749  -29.60236  91165.41553  282.11144  0.41565
0.91910  0.60109  1.12653  135.55057  -29.33467  91253.78970  282.18544  0.41183
0.92826  0.59911  1.12743  134.23244  -29.04940  91353.78953  282.26933  0.40777
0.93725  0.59717  1.12845  132.81719  -28.74311  91467.02217  282.36480  0.40340
0.94608  0.59525  1.12959  131.28532  -28.41158  91595.37333  282.47376  0.39867
0.95476  0.59338  1.13089  129.61293  -28.04963  91741.07163  282.59854  0.39351
0.96330  0.59153  1.13236  127.77082  -27.65094  91906.74027  282.74189  0.38782
0.97168  0.58971  1.13402  125.72341  -27.20781  92095.43020  282.90707  0.38149
0.97994  0.58793  1.13591  123.42767  -26.71092  92310.62297  283.09802  0.37440
0.98805  0.58617  1.13804  120.83204  -26.14911  92556.17947  283.31937  0.36638
0.99604  0.58444  1.14042  117.86806  -25.50753  92834.79904  283.57762  0.35723
1.00272  0.58359  1.15521  119.05651  -0.00252  94659.16808  285.44994  0.35151
1.00818  0.58359  1.16745  268.13923  -1.33367  88454.09051  263.94088  0.82331
1.01370  0.58359  1.19225  261.45174  -5.15461  91208.34877  266.49879  0.79906
1.01929  0.58359  1.20109  258.40770  -6.90281  92315.70477  267.74843  0.78804
1.02494  0.58359  1.20199  257.08429  -7.76262  92587.32512  268.33526  0.78322
1.03065  0.58359  1.19973  256.35593  -8.19728  92523.47799  268.65469  0.78058
1.03643  0.58359  1.19636  255.77201  -8.41177  92339.69024  268.87607  0.77850
1.04228  0.58359  1.19267  255.17596  -8.50956  92118.73142  269.06434  0.77643
1.04819  0.58359  1.18893  254.51984  -8.54648  91891.12876  269.24341  0.77418
1.05418  0.58359  1.18526  253.79259  -8.55290  91668.01573  269.42203  0.77172
1.06024  0.58359  1.18168  252.99503  -8.54497  91453.26980  269.60325  0.76904
1.06637  0.58359  1.17822  252.13146  -8.53103  91247.96923  269.78798  0.76615
1.07258  0.58359  1.17488  251.20677  -8.51524  91052.09623  269.97625  0.76308
1.07887  0.58359  1.17163  250.22548  -8.49958  90865.22862  270.16780  0.75983
1.08524  0.58359  1.16849  249.19137  -8.48495  90686.83507  270.36229  0.75642
1.09169  0.58359  1.16545  248.10743  -8.47179  90516.40113  270.55942  0.75285
1.09822  0.58359  1.16249  246.97583  -8.46027  90353.47790  270.75896  0.74915
1.10484  0.58359  1.15962  245.79807  -8.45047  90197.69418  270.96075  0.74530
1.11155  0.58359  1.15684  244.57499  -8.44239  90048.75229  271.16472  0.74132
1.11836  0.58359  1.15413  243.30690  -8.43598  89906.41797  271.37089  0.73720
1.12525  0.58359  1.15150  241.99370  -8.43111  89770.50866  271.57931  0.73294
1.13224  0.58359  1.14895  240.63492  -8.42751  89640.88570  271.79008  0.72855
1.13933  0.58359  1.14647  239.22935  -8.42407  89517.64001  272.00340  0.72401
1.14652  0.58359  1.14410  237.76429  -8.41502  89404.67903  272.22226  0.71929
1.15382  0.58359  1.14177  236.25770  -8.40688  89294.63671  272.44100  0.71445
1.16123  0.58359  1.13950  234.70581  -8.40173  89188.39251  272.66075  0.70948
1.16874  0.58359  1.13729  233.10068  -8.39765  89088.36652  272.88376  0.70435
1.17638  0.58359  1.13515  231.44110  -8.39355  88994.39369  273.11005  0.69905
1.18413  0.58359  1.13307  229.72573  -8.38875  88906.36988  273.33965  0.69358
1.19200  0.58359  1.13106  227.95317  -8.38271  88824.23031  273.57259  0.68794
1.20000  0.58359  1.12911  226.12208  -8.37500  88747.93151  273.80885  0.68213
1.20812  0.58359  1.12723  224.23125  -8.36527  88677.44056  274.04836  0.67614
1.21639  0.58359  1.12541  222.27969  -8.35323  88612.72763  274.29098  0.66996
1.22479  0.58359  1.12366  220.26670  -8.33868  88553.75907  274.53648  0.66360
1.23333  0.58359  1.12197  218.19201  -8.32156  88500.48904  274.78456  0.65706
1.24203  0.58359  1.12034  216.05591  -8.30199  88452.84819  275.03480  0.65034
1.25087  0.58359  1.11879  213.85940  -8.28030  88410.72852  275.28663  0.64344
1.25988  0.58359  1.11730  211.60448  -8.25717  88373.96514  275.53930  0.63638
1.26905  0.58359  1.11587  209.29443  -8.23361  88342.31744  275.79186  0.62915
1.27839  0.58359  1.11452  206.93420  -8.21089  88315.46037  276.04304  0.62178
1.28792  0.58359  1.11323  204.53099  -8.18980  88293.02838  276.29124  0.61429
1.29762  0.58359  1.11203  202.09505  -8.16861  88274.88009  276.53458  0.60672
1.30752  0.58359  1.11091  199.64174  -8.14139  88261.85555  276.77169  0.59910
1.31762  0.58359  1.10986  197.18900  -8.12499  88250.79392  276.99797  0.59151
1.32792  0.58359  1.10890  194.74521  -8.12780  88241.97925  277.21141  0.58397
1.33845  0.58359  1.10803  192.32686  -8.14924  88235.80214  277.40959  0.57653
1.34920  0.58359  1.10726  189.95483  -8.19066  88231.99512  277.58939  0.56925
1.36018  0.58359  1.10661  187.65123  -8.25401  88230.49840  277.74801  0.56221
1.37141  0.58359  1.10608  185.43835  -8.34103  88231.48333  277.88331  0.55547
1.38290  0.58359  1.10569  183.33772  -8.45233  88235.37047  277.99421  0.54909
1.39467  0.58359  1.10544  181.36968  -8.58502  88243.04154  278.08107  0.54314
1.40671  0.58359  1.10535  179.55410  -8.73457  88256.15438  278.14627  0.53768
1.41905  0.58359  1.10538  177.90567  -8.91824  88272.42026  278.18998  0.53274
1.43171  0.58359  1.10553  176.42523  -9.14069  88293.30984  278.21655  0.52832
1.44469  0.58359  1.10581  175.11298  -9.40301  88319.63709  278.23034  0.52443
1.45802  0.58359  1.10619  173.96586  -9.70618  88351.90365  278.23564  0.52105
1.47171  0.58359  1.10667  172.97794  -10.04774  88390.84901  278.23684  0.51816
1.48579  0.58359  1.10725  172.14260  -10.42488  88437.56838  278.23829  0.51573
1.50028  0.58359  1.10790  171.44879  -10.85187  88489.96603  278.24092  0.51374
1.51520  0.58359  1.10862  170.87583  -11.33043  88549.54176  278.24822  0.51211
1.53058  0.58359  1.10941  170.40444  -11.85810  88617.59899  278.26294  0.51080
1.54645  0.58359  1.11029  170.01756  -12.42667  88696.09610  278.28789  0.50975
1.56283  0.58359  1.11126  169.70056  -13.04076  88784.81849  278.32354  0.50890
1.57978  0.58359  1.11232  169.43070  -13.70663  88884.93238  278.37126  0.50821
1.59732  0.58359  1.11351  169.18314  -14.42244  88999.37134  278.43376  0.50760
1.61549  0.58359  1.11484  168.93621  -15.18005  89132.07358  278.51455  0.50698
1.63435  0.58359  1.11634  168.66988  -15.98988  89283.66001  278.61406  0.50632
1.65395  0.58359  1.11804  168.35256  -16.85525  89458.77285  278.73624  0.50552
1.67436  0.58359  1.12000  167.95335  -17.76799  89663.92199  278.88667  0.50448
1.69563  0.58359  1.12225  167.44261  -18.73729  89902.17839  279.06787  0.50311
1.71784  0.58359  1.12485  166.77601  -19.76323  90181.24851  279.28645  0.50129
1.74109  0.58359  1.12789  165.90628  -20.83468  90510.50240  279.55046  0.49886
1.76547  0.58359  1.13142  164.78110  -21.95059  90896.64304  279.86560  0.49568
1.79111  0.58359  1.13557  163.33406  -23.08009  91352.90205  280.24325  0.49153
1.81813  0.58359  1.14040  161.49963  -24.19263  91887.78195  280.69060  0.48621
1.84670  0.58359  1.14603  159.20456  -25.21407  92515.05032  281.21933  0.47947
1.87700  0.58359  1.15251  156.39198  -26.04315  93242.78159  281.83596  0.47109
1.90926  0.58359  1.15992  153.03271  -26.51302  94078.35575  282.54603  0.46090
1.94375  0.58359  1.16822  149.16862  -26.39223  95020.02380  283.34659  0.44891
1.98079  0.58359  1.17726  144.95575  -25.38637  96050.74771  284.22095  0.43543
2.02000  0.58359  1.18677  140.74371  -23.23968  97140.14011  285.14026  0.42140
2.06000  0.58359  1.19560  137.12350  -20.03679  98154.79533  285.99157  0.40876
2.10000  0.58359  1.20241  134.55110  -16.09737  98941.36591  286.65080  0.39925
2.14000  0.58359  1.20680  133.11156  -11.82860  99452.57232  287.08382  0.39343
2.18000  0.58359  1.20895  132.67368  -7.57751  99708.18935  287.30984  0.39108
2.22000  0.58359  1.20944  132.99530  -3.55093  99774.69149  287.38406  0.39148
2.26000  0.58359  1.20900  133.84194  0.20537  99735.21203  287.37532  0.39384
2.30000  0.58359  1.20816  135.07393  3.71305  99652.07720  287.33491  0.39764
2.34000  0.58359  1.20715  136.61731  6.89901  99550.63798  287.28293  0.40258
2.38000  0.58359  1.20601  138.40480  9.65683  99435.82392  287.22321  0.40836
2.42000  0.58359  1.20469  140.35136  11.89207  99302.20144  287.15186  0.41463
2.46000  0.58359  1.20309  142.35382  13.55210  99139.39584  287.06193  0.42101
2.50000  0.58359  1.20111  144.30081  14.64231  98936.61900  286.94711  0.42711
2.54000  0.58359  1.19867  146.08791  15.22969  98686.28654  286.80435  0.43263
2.58000  0.58359  1.19573  147.63366  15.43525  98386.41834  286.63527  0.43735
2.62000  0.58359  1.19233  148.89336  15.41713  98041.68887  286.44625  0.44118
2.66000  0.58359  1.18855  149.86857  15.34645  97663.18689  286.24742  0.44418
2.70000  0.58359  1.18454  150.61017  15.37852  97267.00862  286.05063  0.44651
2.74000  0.58359  1.18049  151.21337  15.62330  96871.91132  285.86684  0.44850
2.78000  0.58359  1.17658  151.80378  16.12117  96496.37867  285.70356  0.45052
2.82000  0.58359  1.17300  152.51561  16.83078  96155.58404  285.56310  0.45294
2.86000  0.58359  1.16988  153.46607  17.63394  95858.82340  285.44219  0.45609
2.90000  0.58359  1.16726  154.73181  18.35790  95607.94702  285.33293  0.46014
2.94000  0.58359  1.16513  156.33340  18.80923  95397.20987  285.22467  0.46508
2.98000  0.58359  1.16339  158.23149  18.80992  95214.59469  285.10615  0.47075
3.02000  0.58359  1.16187  160.33446  18.22601  95044.15059  284.96737  0.47683
3.06000  0.58359  1.16040  162.51474  16.98420  94868.85893  284.80095  0.48298
3.10000  0.58359  1.15882  164.63042  15.07619  94673.89254  284.60344  0.48882
3.14000  0.58359  1.15699  166.54640  12.54782  94448.30730  284.37533  0.49405
3.18000  0.58359  1.15480  168.14674  9.47874  94184.67141  284.11997  0.49840
3.22000  0.58359  1.15217  169.33632  5.96598  93878.46134  283.84297  0.50168
3.26000  0.58359  1.14904  170.03647  2.11737  93527.80049  283.55220  0.50374
3.30000  0.58359  1.14537  170.17894  -1.93518  93131.35192  283.25546  0.50442
3.34000  0.58359  1.14120  169.73697  -5.96266  92695.31557  282.96005  0.50365
3.38000  0.58359  1.13660  168.74546  -9.76975  92229.10551  282.67421  0.50149
3.42000  0.58359  1.13169  167.27565  -13.21903  91743.77295  282.40873  0.49808
3.46000  0.58359  1.12654  165.42066  -16.21667  91250.90702  282.17520  0.49358
3.50000  0.58359  1.12125  163.28322  -18.70663  90761.39701  281.98449  0.48821
3.54000  0.58359  1.11591  160.96583  -20.66485  90284.67361  281.84569  0.48220
3.58000  0.58359  1.11059  158.56363  -22.09283  89828.30638  281.76550  0.47576
3.62000  0.58359  1.10533  156.15958  -23.00942  89397.84335  281.74785  0.46909
3.66000  0.58359  1.10020  153.82293  -23.43997  88997.39558  281.79457  0.46237
3.70000  0.58359  1.09523  151.61092  -23.40505  88630.17026  281.90603  0.45577
3.74000  0.58359  1.09046  149.57411  -22.91020  88299.12526  282.08181  0.44942
3.78000  0.58359  1.08594  147.76392  -21.93653  88008.31084  282.32157  0.44349
3.82000  0.58359  1.08176  146.24280  -20.43957  87763.13020  282.62432  0.43815
3.86000  0.58359  1.07801  145.09356  -18.35282  87571.80884  282.98833  0.43367
3.90000  0.58359  1.07486  144.42445  -15.59985  87446.40814  283.41079  0.43043
3.94000  0.58359  1.07251  144.36754  -12.12248  87400.98555  283.88547  0.42892
3.98000  0.58359  1.07118  145.06418  -7.90377  87452.41959  284.40385  0.42972
4.02000  0.58359  1.07112  146.64364  -3.00637  87615.89902  284.95225  0.43343
4.06000  0.58359  1.07255  149.20579  2.38761  87905.53544  285.51370  0.44053
4.10000  0.58359  1.07557  152.69218  7.82286  88328.04628  286.07972  0.45091
4.14000  0.58359  1.08003  156.94177  12.79608  88871.48028  286.65150  0.46393
4.18000  0.58359  1.08560  161.75188  16.86463  89507.85796  287.22288  0.47867
4.22000  0.58359  1.09186  166.92461  19.66279  90195.55437  287.77034  0.49424
4.26000  0.58359  1.09834  172.29449  20.91446  90883.75678  288.25430  0.50993
4.30000  0.58359  1.10458  177.72573  20.43655  91519.64949  288.63221  0.52527
4.34000  0.58359  1.11011  183.09780  18.12927  92054.44078  288.87197  0.54001
4.38000  0.58359  1.11453  188.29844  13.96279  92448.32055  288.95916  0.55408
4.42000  0.58359  1.11745  193.23654  7.94963  92669.83038  288.89357  0.56759
4.46000  0.58359  1.11847  197.83440  0.09504  92683.78916  288.67440  0.58083
4.50000  0.58359  1.11696  201.97409  -9.39912  92439.84597  288.30187  0.59401
4.54000  0.58359  1.11296  205.40054  -19.81551  91951.98031  287.81258  0.60675
4.58000  0.58359  1.10653  208.08918  -30.49069  91229.66087  287.21120  0.61903
4.62000  0.58359  1.09794  210.18835  -40.83644  90292.79463  286.48515  0.63103
4.66000  0.58359  1.08759  211.98340  -50.35016  89167.15847  285.60498  0.64311
4.70000  0.58359  1.07597  213.85294  -58.61046  87882.17509  284.53001  0.65573
4.74000  0.58359  1.06358  216.22967  -65.26597  86469.94666  283.21902  0.66948
4.78000  0.58359  1.05091  219.56686  -70.02599  84965.04078  281.64579  0.68501
4.82000  0.58359  1.03835  224.30736  -72.65719  83404.67642  279.81599  0.70311
4.86000  0.58359  1.02621  230.85261  -72.98689  81829.03316  277.77734  0.72464
4.90000  0.58359  1.01472  239.53109  -70.90947  80281.86048  275.61358  0.75059
4.94000  0.58359  1.00411  250.57022  -66.39545  78810.28219  273.41793  0.78199
4.98000  0.58359  0.99483  264.07304  -59.49876  77464.34963  271.25579  0.81986
5.02000  0.58359  0.98755  280.00263  -50.36106  76295.81756  269.13425  0.86505
5.06000  0.58359  0.98321  298.16275  -39.21590  75356.02437  266.99318  0.91807
5.10000  0.58359  0.98288  318.02737  -26.38970  74688.96228  264.71805  0.97839
5.14000  0.58359  0.98790  338.09651  -12.40014  74361.97980  262.21945  1.04220
5.18000  0.58359  0.99920  356.73741  1.91851  74427.13456  259.48132  1.10472
5.22000  0.58359  1.01603  372.15342  15.15262  74864.11112  256.68204  1.15967
5.26000  0.58359  1.03607  383.94284  26.08386  75554.52271  254.03770  1.20439
5.30000  0.58359  1.05737  392.44074  34.38921  76400.53016  251.70784  1.23862
5.34000  0.58359  1.07844  398.22439  40.23371  77323.71955  249.77130  1.26331
5.38000  0.58359  1.09832  401.88030  44.00854  78266.37612  248.24172  1.27996
5.42000  0.58359  1.11648  403.90499  46.17193  79192.56515  247.09309  1.29008
5.46000  0.58359  1.13281  404.67586  47.16823  80087.33799  246.28211  1.29500
5.50000  0.58359  1.14749  404.45032  47.39332  80954.64475  245.76415  1.29574
5.54000  0.58359  1.16091  403.37825  47.18382  81813.60771  245.50226  1.29296
5.58000  0.58359  1.17352  401.52758  46.81719  82691.25138  245.46826  1.28706
5.62000  0.58359  1.18574  398.93104  46.51509  83608.54074  245.63478  1.27831
5.66000  0.58359  1.19763  395.65728  46.44464  84558.48619  245.95860  1.26710
5.70000  0.58359  1.20875  391.88412  46.71333  85484.17065  246.36325  1.25425
5.74000  0.58359  1.21811  387.91765  47.35829  86276.87099  246.73795  1.24103
5.78000  0.58359  1.22451  384.11539  48.34031  86809.98736  246.96485  1.22887
5.82000  0.58359  1.22710  380.75838  49.55563  86992.12969  246.95981  1.21880
5.86000  0.58359  1.22569  377.97553  50.86388  86798.85042  246.69523  1.21124
5.90000  0.58359  1.22064  375.76206  52.11632  86265.11055  246.19323  1.20604
5.94000  0.58359  1.21258  374.04886  53.17518  85455.18870  245.50296  1.20280
5.98000  0.58359  1.20204  372.78448  53.92791  84426.94041  244.67439  1.20119
6.00000  0.58359  1.20204  372.78448  53.92791  84426.94041  244.67439  1.20119
-0.96000  0.81094  1.11481  156.93965  -0.01886  88843.80343  277.62088  0.46985
-0.94000  0.81094  1.14551  147.81637  -0.01858  92268.68892  280.59704  0.44018
-0.90000  0.81094  1.14368  148.52128  -0.01777  92063.02075  280.41929  0.44242
-0.86000  0.81094  1.14167  149.30473  -0.01724  91837.41899  280.22438  0.44491
-0.82000  0.81094  1.13936  150.22614  -0.01790  91578.14193  280.00046  0.44783
-0.78000  0.81094  1.13665  151.33752  -0.02006  91275.50813  279.73911  0.45136
-0.74000  0.81094  1.13350  152.67916  -0.02353  90922.74909  279.43415  0.45561
-0.70000  0.81094  1.12985  154.27481  -0.02782  90516.12634  279.08178  0.46066
-0.66000  0.81094  1.12571  156.13035  -0.03241  90054.93959  278.68061  0.46653
-0.62000  0.81094  1.12110  158.23571  -0.03689  89541.30093  278.23160  0.47321
-0.58000  0.81094  1.11605  160.56911  -0.04113  88979.65540  277.73779  0.48061
-0.54000  0.81094  1.11061  163.10244  -0.04523  88376.09341  277.20383  0.48866
-0.50000  0.81094  1.10485  165.80656  -0.04953  87737.53869  276.63533  0.49728
-0.46000  0.81094  1.09883  168.65591  -0.05453  87070.90280  276.03809  0.50637
-0.42000  0.81094  1.09260  171.63217  -0.06078  86382.27651  275.41733  0.51588
-0.38000  0.81094  1.08619  174.72716  -0.06895  85676.18670  274.77698  0.52580
-0.34000  0.81094  1.07963  177.94549  -0.07974  84954.89177  274.11902  0.53613
-0.30000  0.81094  1.07291  181.30794  -0.09408  84217.62009  273.44265  0.54693
-0.26000  0.81094  1.06598  184.85688  -0.11326  83459.55583  272.74340  0.55835
-0.22000  0.81094  1.05874  188.66663  -0.13942  82670.19383  272.01150  0.57063
-0.18000  0.81094  1.05101  192.86446  -0.17647  81830.26764  271.22911  0.58416
-0.14000  0.81094  1.04245  197.67732  -0.23239  80905.35202  270.36450  0.59970
-0.10000  0.81094  1.03244  203.54798  -0.32576  79830.86987  269.35928  0.61866
-0.06000  0.81094  1.01963  211.47514  -0.50766  78470.80831  268.09712  0.64426
-0.02000  0.81094  1.00019  224.22544  -0.89881  76447.65894  266.26292  0.68546
0.02747  0.80506  0.91079  234.64630  -46.57815  67664.46700  258.80384  0.74177
0.07970  0.79388  0.97806  208.09063  -44.66062  74789.60718  266.38033  0.65047
0.12697  0.78376  1.00372  198.17967  -42.74731  77550.79759  269.15508  0.61643
0.17015  0.77452  1.01750  192.90864  -41.65561  79038.50445  270.60288  0.59845
0.20989  0.76601  1.02717  189.32606  -40.91347  80081.56262  271.59278  0.58629
0.24670  0.75813  1.03501  186.53386  -40.33480  80926.30236  272.37829  0.57682
0.28098  0.75080  1.04194  184.15758  -39.84095  81671.95287  273.06077  0.56878
0.31306  0.74393  1.04839  182.00765  -39.39224  82367.21420  273.68985  0.56150
0.34320  0.73748  1.05461  179.97820  -38.96640  83038.20649  274.29226  0.55464
0.37163  0.73139  1.06072  178.00852  -38.55043  83698.71909  274.88237  0.54799
0.39852  0.72564  1.06676  176.06602  -38.13714  84354.63119  275.46678  0.54144
0.42404  0.72018  1.07274  174.13739  -37.72334  85006.13038  276.04664  0.53494
0.44832  0.71498  1.07862  172.22338  -37.30890  85649.12247  276.61906  0.52852
0.47148  0.71002  1.08433  170.33466  -36.89587  86276.43925  277.17835  0.52219
0.49361  0.70528  1.08978  168.48812  -36.48785  86879.08503  277.71721  0.51602
0.51480  0.70075  1.09490  166.70317  -36.08916  87447.54427  278.22789  0.51008
0.53513  0.69640  1.09960  164.99842  -35.70422  87973.03879  278.70330  0.50442
0.55466  0.69222  1.10382  163.38899  -35.33687  88448.56956  279.13788  0.49910
0.57346  0.68819  1.10753  161.88476  -34.98995  88869.60206  279.52813  0.49415
0.59158  0.68431  1.11070  160.48963  -34.66506  89234.33193  279.87278  0.48957
0.60907  0.68057  1.11336  159.20180  -34.36257  89543.55995  280.17260  0.48537
0.62596  0.67696  1.11553  158.01470  -34.08171  89800.27709  280.43005  0.48151
0.64230  0.67346  1.11725  156.91823  -33.82083  90009.09071  280.64875  0.47797
0.65813  0.67007  1.11858  155.90015  -33.57768  90175.61661  280.83300  0.47470
0.67346  0.66679  1.11958  154.94727  -33.34968  90305.93579  280.98736  0.47165
0.68835  0.66360  1.12031  154.04652  -33.13416  90406.15352  281.11629  0.46879
0.70280  0.66051  1.12082  153.18573  -32.92857  90482.02667  281.22390  0.46607
0.71684  0.65750  1.12117  152.35404  -32.73053  90538.75122  281.31386  0.46345
0.73050  0.65458  1.12139  151.54193  -32.53789  90580.90174  281.38934  0.46091
0.74380  0.65173  1.12153  150.74123  -32.34876  90612.42442  281.45311  0.45841
0.75676  0.64896  1.12161  149.94504  -32.16150  90636.66098  281.50752  0.45594
0.76938  0.64626  1.12166  149.14753  -31.97467  90656.39819  281.55463  0.45346
0.78170  0.64362  1.12172  148.34382  -31.78704  90673.92959  281.59620  0.45098
0.79372  0.64105  1.12178  147.52981  -31.59753  90691.12353  281.63378  0.44846
0.80545  0.63854  1.12187  146.70197  -31.40518  90709.49759  281.66874  0.44591
0.81692  0.63608  1.12199  145.85713  -31.20904  90730.27073  281.70230  0.44331
0.82813  0.63368  1.12216  144.99235  -31.00834  90754.48371  281.73559  0.44064
0.83910  0.63133  1.12237  144.10478  -30.80219  90782.97754  281.76963  0.43791
0.84982  0.62904  1.12265  143.19139  -30.58965  90816.48483  281.80539  0.43509
0.86033  0.62679  1.12298  142.24887  -30.36967  90855.67155  281.84380  0.43219
0.87062  0.62459  1.12337  141.27338  -30.14104  90901.17832  281.88575  0.42918
0.88070  0.62243  1.12384  140.26035  -29.90231  90953.65966  281.93214  0.42605
0.89058  0.62031  1.12437  139.20433  -29.65175  91013.82240  281.98391  0.42279
0.90027  0.61824  1.12499  138.09864  -29.38728  91082.46563  282.04204  0.41937
0.90977  0.61621  1.12569  136.93521  -29.10643  91160.52941  282.10763  0.41577
0.91910  0.61421  1.12649  135.70426  -28.80627  91249.12319  282.18190  0.41195
0.92826  0.61225  1.12739  134.39346  -28.48182  91349.33962  282.26605  0.40789
0.93725  0.61032  1.12841  132.98715  -28.12837  91462.78595  282.36176  0.40352
0.94608  0.60843  1.12956  131.46622  -27.73980  91591.34869  282.47097  0.39878
0.95476  0.60658  1.13086  129.80727  -27.30842  91737.25798  282.59599  0.39361
0.96330  0.60475  1.13232  127.98169  -26.82481  91903.13929  282.73956  0.38792
0.97168  0.60295  1.13399  125.95464  -26.27739  92092.04657  282.90499  0.38159
0.97994  0.60119  1.13587  123.68397  -25.65214  92307.46511  283.09619  0.37449
0.98805  0.59945  1.13801  121.11914  -24.93217  92553.26012  283.31780  0.36647
0.99604  0.59774  1.14040  118.19653  -24.07772  92832.13508  283.57635  0.35731
1.00272  0.59689  1.15519  118.69716  -9.57374  94657.16229  285.44938  0.35159
1.00818  0.59689  1.13783  124.55515  -12.17301  92646.10421  283.64588  0.37067
1.01370  0.59689  1.13811  126.33717  -10.85115  92671.45436  283.65475  0.37556
1.01929  0.59689  1.13668  128.64637  -9.43571  92500.82779  283.48808  0.38216
1.02494  0.59689  1.13449  130.88522  -8.57216  92239.26837  283.23209  0.38878
1.03065  0.59689  1.13220  132.85419  -8.11229  91964.36741  282.95840  0.39470
1.03643  0.59689  1.13005  134.55118  -7.86695  91703.60622  282.69397  0.39987
1.04228  0.59689  1.12806  136.02602  -7.72495  91461.84080  282.44463  0.40439
1.04819  0.59689  1.12623  137.32837  -7.63293  91237.10402  282.20941  0.40841
1.05418  0.59689  1.12452  138.49642  -7.56699  91026.43541  281.98613  0.41202
1.06024  0.59689  1.12291  139.55784  -7.51636  90827.40142  281.77284  0.41532
1.06637  0.59689  1.12139  140.53272  -7.47587  90638.24883  281.56814  0.41836
1.07258  0.59689  1.11994  141.43603  -7.44270  90457.74733  281.37100  0.42118
1.07887  0.59689  1.11856  142.27927  -7.41517  90285.02284  281.18070  0.42383
1.08524  0.59689  1.11724  143.07147  -7.39217  90119.43959  280.99668  0.42632
1.09169  0.59689  1.11597  143.81990  -7.37290  89960.52486  280.81855  0.42867
1.09822  0.59689  1.11476  144.53048  -7.35683  89807.92179  280.64599  0.43091
1.10484  0.59689  1.11361  145.20811  -7.34351  89661.35881  280.47877  0.43306
1.11155  0.59689  1.11250  145.85687  -7.33258  89520.62977  280.31670  0.43511
1.11836  0.59689  1.11145  146.48021  -7.32372  89385.58131  280.15966  0.43709
1.12525  0.59689  1.11044  147.08102  -7.31661  89256.10461  280.00756  0.43899
1.13224  0.59689  1.10948  147.66180  -7.31086  89132.12814  279.86034  0.44084
1.13933  0.59689  1.10857  148.22482  -7.30511  89013.64879  279.71802  0.44263
1.14652  0.59689  1.10772  148.77462  -7.29051  88901.48933  279.58142  0.44437
1.15382  0.59689  1.10690  149.31500  -7.27727  88793.65571  279.44873  0.44608
1.16123  0.59689  1.10612  149.84321  -7.26829  88690.62309  279.32040  0.44776
1.16874  0.59689  1.10539  150.35934  -7.26047  88593.02952  279.19701  0.44940
1.17638  0.59689  1.10471  150.86487  -7.25255  88500.88059  279.07860  0.45100
1.18413  0.59689  1.10408  151.36113  -7.24384  88414.18861  278.96522  0.45257
1.19200  0.59689  1.10349  151.84932  -7.23393  88332.97836  278.85691  0.45411