Title="NOZZLE"
Variables="x","y","dens","velx","vely","spre","ttem","mach"
Zone T="NOZZLE" i=261,j=81,f=point 
-0.96000  0.80000  1.09514  162.67280  0.00006  86637.00792  275.58924  0.48880
-0.94000  0.80000  1.09514  162.67280  0.00006  86637.00792  275.58924  0.48880
-0.90000  0.80000  1.09323  163.24043  0.00006  86426.04224  275.39774  0.49068
-0.86000  0.80000  1.09139  163.81072  0.00006  86223.03157  275.21320  0.49256
-0.82000  0.80000  1.08962  164.39358  0.00007  86026.73507  275.03455  0.49447
-0.78000  0.80000  1.08789  164.99730  0.00007  85836.29569  274.86105  0.49644
-0.74000  0.80000  1.08621  165.62935  0.00008  85651.00929  274.69209  0.49850
-0.70000  0.80000  1.08457  166.29673  0.00008  85470.21546  274.52712  0.50066
-0.66000  0.80000  1.08296  167.00624  0.00009  85293.22893  274.36554  0.50294
-0.62000  0.80000  1.08138  167.76469  0.00009  85119.28394  274.20669  0.50537
-0.58000  0.80000  1.07981  168.57918  0.00009  84947.47936  274.04976  0.50797
-0.54000  0.80000  1.07826  169.45741  0.00010  84776.71684  273.89378  0.51076
-0.50000  0.80000  1.07669  170.40810  0.00010  84605.62471  273.73750  0.51377
-0.46000  0.80000  1.07511  171.44167  0.00010  84432.45852  273.57931  0.51704
-0.42000  0.80000  1.07349  172.57103  0.00010  84254.96498  273.41715  0.52060
-0.38000  0.80000  1.07180  173.81301  0.00011  84070.18823  273.24829  0.52451
-0.34000  0.80000  1.07000  175.19029  0.00011  83874.18211  273.06910  0.52884
-0.30000  0.80000  1.06805  176.73467  0.00011  83661.56328  272.87462  0.53369
-0.26000  0.80000  1.06587  178.49257  0.00011  83424.78132  272.65790  0.53921
-0.22000  0.80000  1.06337  180.53497  0.00012  83152.85627  272.40893  0.54563
-0.18000  0.80000  1.06038  182.97666  0.00012  82829.04404  272.11251  0.55331
-0.14000  0.80000  1.05665  186.01731  0.00013  82426.15675  271.74439  0.56289
-0.10000  0.80000  1.05172  190.03760  0.00014  81896.17316  271.26298  0.57556
-0.06000  0.80000  1.04464  195.85629  0.00017  81143.76151  270.59133  0.59392
-0.02000  0.80000  1.03300  205.50627  0.00025  79925.02896  269.53052  0.62441
0.02747  0.79405  0.96211  209.02694  -45.23704  72914.81186  264.00827  0.65657
0.07970  0.78275  1.02072  186.32755  -40.32387  79247.44771  270.46124  0.57825
0.12697  0.77252  1.04310  177.17655  -38.34344  81707.09485  272.87324  0.54741
0.17015  0.76318  1.05526  171.97605  -37.21799  83054.15348  274.17476  0.53008
0.20989  0.75458  1.06359  168.34247  -36.43163  83980.50625  275.06159  0.51804
0.24670  0.74661  1.06998  165.52681  -35.82228  84692.34520  275.73828  0.50875
0.28098  0.73919  1.07518  163.20929  -35.32074  85273.51026  276.28757  0.50113
0.31306  0.73225  1.07958  161.22428  -34.89116  85765.94978  276.75072  0.49462
0.34320  0.72573  1.08339  159.47504  -34.51261  86193.65201  277.15130  0.48890
0.37163  0.71957  1.08676  157.90015  -34.17180  86571.71638  277.50411  0.48377
0.39852  0.71375  1.08977  156.45807  -33.85972  86910.38702  277.81919  0.47908
0.42404  0.70823  1.09250  155.11930  -33.57001  87217.04261  278.10374  0.47473
0.44832  0.70298  1.09499  153.86202  -33.29793  87497.25529  278.36318  0.47067
0.47148  0.69796  1.09728  152.66960  -33.03989  87755.39165  278.60173  0.46682
0.49361  0.69318  1.09940  151.52904  -32.79308  87994.97306  278.82279  0.46315
0.51480  0.68859  1.10139  150.42996  -32.55524  88218.89795  279.02914  0.45962
0.53513  0.68419  1.10325  149.36398  -32.32456  88429.58661  279.22309  0.45620
0.55466  0.67996  1.10501  148.32425  -32.09956  88629.07807  279.40656  0.45288
0.57346  0.67589  1.10669  147.30517  -31.87904  88819.10023  279.58117  0.44963
0.59158  0.67197  1.10829  146.30212  -31.66197  89001.11898  279.74831  0.44643
0.60907  0.66819  1.10984  145.31127  -31.44755  89176.37944  279.90911  0.44328
0.62596  0.66453  1.11133  144.32946  -31.23508  89345.93884  280.06457  0.44016
0.64230  0.66100  1.11278  143.35407  -31.02400  89510.69435  280.21550  0.43707
0.65813  0.65757  1.11420  142.38292  -30.81383  89671.40730  280.36260  0.43400
0.67346  0.65425  1.11558  141.41421  -30.60419  89828.72437  280.50646  0.43093
0.68835  0.65103  1.11693  140.44640  -30.39474  89983.19654  280.64757  0.42788
0.70280  0.64790  1.11827  139.47818  -30.18520  90135.29597  280.78636  0.42482
0.71684  0.64486  1.11959  138.50839  -29.97532  90285.43038  280.92319  0.42177
0.73050  0.64191  1.12089  137.53596  -29.76486  90433.95436  281.05837  0.41870
0.74380  0.63903  1.12218  136.55992  -29.55363  90581.18030  281.19219  0.41563
0.75676  0.63623  1.12346  135.57933  -29.34140  90727.38936  281.32489  0.41255
0.76938  0.63349  1.12473  134.59325  -29.12798  90872.83984  281.45669  0.40946
0.78170  0.63083  1.12600  133.60070  -28.91317  91017.77450  281.58780  0.40634
0.79372  0.62823  1.12727  132.60066  -28.69673  91162.42647  281.71841  0.40321
0.80545  0.62569  1.12854  131.59202  -28.47843  91307.02350  281.84871  0.40005
0.81692  0.62321  1.12980  130.57352  -28.25799  91451.77595  281.97888  0.39686
0.82813  0.62078  1.13107  129.54383  -28.03513  91596.94984  282.10914  0.39364
0.83910  0.61841  1.13235  128.50154  -27.80955  91742.77390  282.23968  0.39038
0.84982  0.61609  1.13364  127.44515  -27.58091  91889.48611  282.37069  0.38708
0.86033  0.61381  1.13493  126.37311  -27.34889  92037.32921  282.50238  0.38374
0.87062  0.61159  1.13624  125.28387  -27.11314  92186.54541  282.63495  0.38034
0.88070  0.60940  1.13756  124.17600  -26.87336  92337.36872  282.76859  0.37689
0.89058  0.60727  1.13890  123.04840  -26.62931  92490.01341  282.90349  0.37338
0.90027  0.60517  1.14025  121.90049  -26.38087  92644.65841  283.03979  0.36980
0.90977  0.60311  1.14162  120.73268  -26.12812  92801.43198  283.17758  0.36617
0.91910  0.60109  1.14302  119.54697  -25.87151  92960.36070  283.31686  0.36249
0.92826  0.59911  1.14443  118.34690  -25.61178  93121.07548  283.45727  0.35876
0.93725  0.59717  1.14585  117.13859  -25.35029  93283.26817  283.59847  0.35501
0.94608  0.59525  1.14728  115.93226  -25.08923  93446.28721  283.73982  0.35126
0.95476  0.59338  1.14871  114.74355  -24.83199  93609.03800  283.88024  0.34758
0.96330  0.59153  1.15012  113.59549  -24.58358  93769.82967  284.01807  0.34401
0.97168  0.58971  1.15150  112.52084  -24.35108  93926.15711  284.15094  0.34068
0.97994  0.58793  1.15281  111.56525  -24.14439  94074.39306  284.27547  0.33771
0.98805  0.58617  1.15402  110.79112  -23.97704  94209.34210  284.38697  0.33530
0.99604  0.58444  1.15503  110.27959  -23.86661  94322.73767  284.47869  0.33370
1.00272  0.58359  1.16451  113.59507  -0.00154  95582.82779  285.93220  0.33510
1.00818  0.58359  1.33720  263.37688  -0.95109  97142.81365  253.07100  0.82586
1.01370  0.58359  1.32837  269.65036  1.26127  96149.35659  252.14671  0.84709
1.01929  0.58359  1.32292  275.37289  2.68383  95465.46592  251.38565  0.86641
1.02494  0.58359  1.31996  280.61498  3.71614  95014.25347  250.75769  0.88404
1.03065  0.58359  1.31857  285.52244  4.52630  94703.79438  250.20337  0.90053
1.03643  0.58359  1.31815  290.17876  5.19717  94478.18391  249.68655  0.91619
1.04228  0.58359  1.31838  294.61847  5.77601  94306.73493  249.18864  0.93117
1.04819  0.58359  1.31906  298.83930  6.29011  94171.55148  248.70419  0.94546
1.05418  0.58359  1.31997  302.88320  6.75355  94053.44493  248.22051  0.95921
1.06024  0.58359  1.32105  306.76579  7.17608  93946.00232  247.73530  0.97248
1.06637  0.58359  1.32224  310.49877  7.56475  93845.72163  247.24800  0.98531
1.07258  0.58359  1.32351  314.09174  7.92471  93750.57942  246.75878  0.99772
1.07887  0.58359  1.32486  317.55309  8.25975  93659.33609  246.26814  1.00974
1.08524  0.58359  1.32626  320.89029  8.57270  93571.17693  245.77670  1.02139
1.09169  0.58359  1.32770  324.11016  8.86566  93485.51841  245.28510  1.03269
1.09822  0.58359  1.32917  327.21928  9.14042  93401.76837  244.79381  1.04366
1.10484  0.58359  1.33067  330.22418  9.39890  93319.20492  244.30304  1.05431
1.11155  0.58359  1.33217  333.13028  9.64247  93237.44476  243.81323  1.06467
1.11836  0.58359  1.33368  335.94241  9.87222  93156.22910  243.32482  1.07475
1.12525  0.58359  1.33520  338.66499  10.08905  93075.36155  242.83825  1.08456
1.13224  0.58359  1.33670  341.30209  10.29379  92994.69258  242.35392  1.09411
1.13933  0.58359  1.33821  343.85745  10.48722  92914.10874  241.87220  1.10341
1.14652  0.58359  1.33970  346.33460  10.67008  92833.52693  241.39344  1.11247
1.15382  0.58359  1.34118  348.73679  10.84312  92752.89418  240.91796  1.12130
1.16123  0.58359  1.34264  351.06712  11.00706  92672.18365  240.44606  1.12991
1.16874  0.58359  1.34408  353.32850  11.16262  92591.38296  239.97801  1.13831
1.17638  0.58359  1.34551  355.52372  11.31049  92510.48892  239.51404  1.14650
1.18413  0.58359  1.34692  357.65546  11.45137  92429.50161  239.05437  1.15449
1.19200  0.58359  1.34830  359.72631  11.58591  92348.41800  238.59918  1.16228
1.20000  0.58359  1.34967  361.73878  11.71476  92267.22574  238.14859  1.16990
1.20812  0.58359  1.35101  363.69536  11.83852  92185.89374  237.70271  1.17734
1.21639  0.58359  1.35232  365.59850  11.95780  92104.35606  237.26159  1.18460
1.22479  0.58359  1.35355  367.47061  12.07469  92016.21617  236.82004  1.19178
1.23333  0.58359  1.35477  369.29006  12.18694  91930.66219  236.38593  1.19879
1.24203  0.58359  1.35603  371.04811  12.29320  91850.70445  235.96155  1.20558
1.25087  0.58359  1.35726  372.75976  12.39580  91770.75823  235.54234  1.21223
1.25988  0.58359  1.35846  374.42829  12.49587  91690.15236  235.12783  1.21873
1.26905  0.58359  1.35962  376.05596  12.59392  91608.71730  234.71790  1.22510
1.27839  0.58359  1.36075  377.64471  12.69019  91526.41353  234.31250  1.23135
1.28792  0.58359  1.36184  379.19637  12.78480  91443.23192  233.91162  1.23747
1.29762  0.58359  1.36290  380.71271  12.87789  91359.16112  233.51521  1.24348
1.30752  0.58359  1.36392  382.19546  12.96962  91274.17984  233.12319  1.24937
1.31762  0.58359  1.36491  383.64629  13.06021  91188.25722  232.73549  1.25517
1.32792  0.58359  1.36586  385.06683  13.14992  91101.35523  232.35200  1.26086
1.33845  0.58359  1.36677  386.45865  13.23904  91013.43123  231.97261  1.26645
1.34920  0.58359  1.36765  387.82326  13.32797  90924.43993  231.59717  1.27196
1.36018  0.58359  1.36849  389.16212  13.41712  90834.33486  231.22556  1.27738
1.37141  0.58359  1.36929  390.47664  13.50698  90743.06919  230.85762  1.28272
1.38290  0.58359  1.37006  391.76813  13.59810  90650.59613  230.49321  1.28799
1.39467  0.58359  1.37079  393.03786  13.69106  90556.86893  230.13216  1.29318
1.40671  0.58359  1.37149  394.28700  13.78652  90461.84048  229.77432  1.29830
1.41905  0.58359  1.37214  395.51664  13.88514  90365.46234  229.41954  1.30337
1.43171  0.58359  1.37276  396.72779  13.98763  90267.68262  229.06770  1.30837
1.44469  0.58359  1.37335  397.92134  14.09471  90168.44131  228.71864  1.31331
1.45802  0.58359  1.37389  399.09811  14.20712  90067.65922  228.37227  1.31820
1.47171  0.58359  1.37440  400.25888  14.32562  89965.20272  228.02844  1.32304
1.48579  0.58359  1.37484  401.40742  14.45439  89858.98627  227.68548  1.32785
1.50028  0.58359  1.37523  402.54485  14.59163  89749.44462  227.34387  1.33262
1.51520  0.58359  1.37562  403.65999  14.73035  89641.91153  227.00789  1.33732
1.53058  0.58359  1.37597  404.75851  14.87362  89533.24825  226.67532  1.34195
1.54645  0.58359  1.37626  405.84306  15.02263  89421.76999  226.34521  1.34654
1.56283  0.58359  1.37648  406.91490  15.17646  89306.41387  226.01715  1.35109
1.57978  0.58359  1.37661  407.97493  15.33236  89186.16258  225.69093  1.35560
1.59732  0.58359  1.37664  409.02420  15.48572  89059.75501  225.36628  1.36008
1.61549  0.58359  1.37654  410.06404  15.62967  88925.56159  225.04283  1.36453
1.63435  0.58359  1.37628  411.09617  15.75470  88781.56130  224.72010  1.36896
1.65395  0.58359  1.37584  412.12256  15.84820  88625.40420  224.39753  1.37337
1.67436  0.58359  1.37517  413.14526  15.89419  88454.56064  224.07456  1.37777
1.69563  0.58359  1.37423  414.16606  15.87324  88266.54405  223.75078  1.38217
1.71784  0.58359  1.37295  415.19322  15.76982  88055.12232  223.42291  1.38659
1.74109  0.58359  1.37139  416.21292  15.54582  87826.85134  223.09735  1.39098
1.76547  0.58359  1.36954  417.22191  15.17322  87582.02867  222.77555  1.39531
1.79111  0.58359  1.36739  418.21879  14.62819  87320.08255  222.45805  1.39957
1.81813  0.58359  1.36497  419.19642  13.88590  87043.80092  222.14746  1.40373
1.84670  0.58359  1.36234  420.14214  12.92240  86759.14206  221.84834  1.40774
1.87700  0.58359  1.35960  421.03830  11.71727  86474.74386  221.56675  1.41152
1.90926  0.58359  1.35688  421.86237  10.25611  86201.62121  221.31010  1.41497
1.94375  0.58359  1.35433  422.58683  8.53306  85952.89443  221.08706  1.41799
1.98079  0.58359  1.35213  423.17935  6.55408  85743.28492  220.90747  1.42043
2.02000  0.58359  1.35046  423.59865  4.42936  85589.27086  220.78287  1.42215
2.06000  0.58359  1.34945  423.82276  2.29754  85500.80607  220.71938  1.42305
2.10000  0.58359  1.34907  423.85762  0.21096  85475.10967  220.71525  1.42316
2.14000  0.58359  1.34907  423.46887  -1.78402  85530.41464  220.85791  1.42141
2.18000  0.58359  1.34922  422.63193  -3.66986  85655.38759  221.15586  1.41768
2.22000  0.58359  1.34930  421.33743  -5.41931  85836.49706  221.61124  1.41195
2.26000  0.58359  1.34910  419.55945  -7.01421  86064.30298  222.23234  1.40411
2.30000  0.58359  1.34841  417.26684  -8.44395  86329.03385  223.02916  1.39403
2.34000  0.58359  1.34702  414.42774  -9.70408  86620.05873  224.01166  1.38160
2.38000  0.58359  1.34473  411.01086  -10.79524  86926.87425  225.18912  1.36672
2.42000  0.58359  1.34136  406.97911  -11.72262  87241.65457  226.57105  1.34927
2.46000  0.58359  1.33685  402.29683  -12.50912  87561.00363  228.16885  1.32916
2.50000  0.58359  1.33097  396.96551  -13.14553  87866.40546  229.97625  1.30647
2.54000  0.58359  1.32378  390.95001  -13.65043  88160.63072  231.99981  1.28113
2.58000  0.58359  1.31533  384.23382  -14.03523  88443.16029  234.23786  1.25316
2.62000  0.58359  1.30577  376.79053  -14.30969  88718.22021  236.68587  1.22258
2.66000  0.58359  1.29522  368.64307  -14.49301  88983.06329  239.32719  1.18958
2.70000  0.58359  1.28371  359.85849  -14.55999  89223.15010  242.12412  1.15456
2.74000  0.58359  1.27161  350.47309  -14.52505  89450.70018  245.05136  1.11776
2.78000  0.58359  1.25928  340.51276  -14.38397  89674.00200  248.06927  1.07940
2.82000  0.58359  1.24692  330.09275  -14.14812  89886.84013  251.12286  1.04002
2.86000  0.58359  1.23457  319.49244  -13.81290  90065.15892  254.13660  1.00065
2.90000  0.58359  1.22277  308.81083  -13.37769  90234.02104  257.07095  0.96166
2.94000  0.58359  1.21166  298.25061  -12.85075  90386.25356  259.86495  0.92376
2.98000  0.58359  1.20139  288.01746  -12.24675  90518.02010  262.46974  0.88761
3.02000  0.58359  1.19207  278.29764  -11.56807  90631.11109  264.85147  0.85375
3.06000  0.58359  1.18381  269.22642  -10.81418  90730.94638  266.99276  0.82256
3.10000  0.58359  1.17660  260.91334  -9.99438  90817.90717  268.88765  0.79429
3.14000  0.58359  1.17036  253.43087  -9.11942  90893.24713  270.54447  0.76908
3.18000  0.58359  1.16502  246.82235  -8.19660  90958.99201  271.98140  0.74697
3.22000  0.58359  1.16045  241.11392  -7.23986  91014.73465  273.21991  0.72797
3.26000  0.58359  1.15652  236.31583  -6.27128  91058.55503  274.28125  0.71203
3.30000  0.58359  1.15309  232.43022  -5.31694  91087.39245  275.18263  0.69911
3.34000  0.58359  1.15007  229.45942  -4.40445  91096.83276  275.93403  0.68918
3.38000  0.58359  1.14737  227.41179  -3.55911  91081.38604  276.53655  0.68224
3.42000  0.58359  1.14494  226.30572  -2.79926  91035.00065  276.98223  0.67835
3.46000  0.58359  1.14277  226.17210  -2.13260  90951.45524  277.25480  0.67759
3.50000  0.58359  1.14086  227.05551  -1.55290  90824.99018  277.33123  0.68013
3.54000  0.58359  1.13926  229.01494  -1.04699  90649.17235  277.18294  0.68617
3.58000  0.58359  1.13796  232.11755  -0.62396  90412.87805  276.77636  0.69598
3.62000  0.58359  1.13721  236.52351  -0.21206  90124.09437  276.07565  0.71008
3.66000  0.58359  1.13735  242.54130  0.29602  89783.58400  274.99936  0.72957
3.70000  0.58359  1.13884  250.46751  1.02337  89394.73192  273.44818  0.75556
3.74000  0.58359  1.14230  260.51923  2.09157  88967.02202  271.31579  0.78898
3.78000  0.58359  1.14811  272.50907  3.60464  88522.76490  268.59636  0.82950
3.82000  0.58359  1.15638  286.19989  5.60981  88073.44185  265.31996  0.87663
3.86000  0.58359  1.16702  301.13297  8.08159  87633.68431  261.59007  0.92908
3.90000  0.58359  1.17976  316.52787  10.92089  87231.11408  257.57571  0.98439
3.94000  0.58359  1.19394  331.69017  13.99198  86867.03953  253.45335  1.04021
3.98000  0.58359  1.20906  345.82353  17.06493  86569.91378  249.42813  1.09360
4.02000  0.58359  1.22425  358.46740  19.97942  86328.30778  245.64569  1.14266
4.06000  0.58359  1.23887  369.46539  22.52646  86143.50268  242.22690  1.18636
4.10000  0.58359  1.25225  378.81731  24.62344  85996.46902  239.23063  1.22430
4.14000  0.58359  1.26409  386.60315  26.18063  85887.50726  236.68972  1.25637
4.18000  0.58359  1.27418  392.96740  27.18053  85805.88475  234.59195  1.28288
4.22000  0.58359  1.28250  398.10314  27.61806  85743.91004  232.90174  1.30437
4.26000  0.58359  1.28909  402.21607  27.53482  85689.04091  231.56312  1.32157
4.30000  0.58359  1.29416  405.49656  26.97036  85639.15882  230.52104  1.33518
4.34000  0.58359  1.29787  408.13933  25.99691  85583.20866  229.71281  1.34600
4.38000  0.58359  1.30036  410.31685  24.69735  85511.60405  229.08127  1.35475
4.42000  0.58359  1.30181  412.17190  23.15160  85419.98127  228.58059  1.36205
4.46000  0.58359  1.30237  413.82307  21.44357  85304.50192  228.17369  1.36840
4.50000  0.58359  1.30212  415.36939  19.66098  85160.03365  227.83067  1.37424
4.54000  0.58359  1.30113  416.88770  17.88836  84982.58896  227.52962  1.37991
4.58000  0.58359  1.29943  418.43398  16.20469  84769.60540  227.25545  1.38562
4.62000  0.58359  1.29708  420.04106  14.68101  84521.07689  226.99938  1.39154
4.66000  0.58359  1.29415  421.71975  13.37481  84240.35156  226.75859  1.39769
4.70000  0.58359  1.29067  423.46658  12.33532  83930.31846  226.53276  1.40407
4.74000  0.58359  1.28669  425.25976  11.60024  83595.27318  226.32549  1.41058
4.78000  0.58359  1.28228  427.05629  11.19100  83242.36701  226.14554  1.41707
4.82000  0.58359  1.27750  428.79877  11.10983  82880.84911  226.00629  1.42327
4.86000  0.58359  1.27240  430.42125  11.34614  82519.46452  225.92323  1.42894
4.90000  0.58359  1.26703  431.85098  11.87241  82168.27118  225.91419  1.43376
4.94000  0.58359  1.26146  433.01752  12.64922  81836.63608  225.99605  1.43744
4.98000  0.58359  1.25575  433.85695  13.62822  81533.20470  226.18264  1.43973
5.02000  0.58359  1.24997  434.31677  14.75651  81265.28212  226.48231  1.44042
5.06000  0.58359  1.24421  434.35806  15.97969  81038.95274  226.89660  1.43939
5.10000  0.58359  1.23859  433.95631  17.24492  80859.10519  227.41966  1.43656
5.14000  0.58359  1.23325  433.10069  18.50256  80729.64726  228.03874  1.43196
5.18000  0.58359  1.22834  431.79246  19.70691  80653.72556  228.73550  1.42564
5.22000  0.58359  1.22401  430.04294  20.81593  80633.92256  229.48775  1.41772
5.26000  0.58359  1.22043  427.87105  21.79000  80672.57994  230.27149  1.40833
5.30000  0.58359  1.21775  425.30089  22.59036  80772.13691  231.06279  1.39763
5.34000  0.58359  1.21613  422.35954  23.17754  80935.45215  231.83923  1.38577
5.38000  0.58359  1.21571  419.07468  23.51039  81166.23372  232.58084  1.37289
5.42000  0.58359  1.21664  415.47173  23.54533  81469.63550  233.27073  1.35912
5.46000  0.58359  1.21910  411.57097  23.23691  81852.64655  233.89520  1.34454
5.50000  0.58359  1.22325  407.38506  22.53977  82323.96345  234.44373  1.32923
5.54000  0.58359  1.22926  402.91724  21.41263  82892.95883  234.90911  1.31319
5.58000  0.58359  1.23727  398.16093  19.82495  83567.32284  235.28860  1.29642
5.62000  0.58359  1.24726  393.10125  17.76657  84349.18744  235.58702  1.27886
5.66000  0.58359  1.25902  387.72096  15.25976  85229.70670  235.82205  1.26041
5.70000  0.58359  1.27197  382.01429  12.37062  86182.56389  236.03062  1.24100
5.74000  0.58359  1.28505  376.00557  9.21436  87158.52086  236.27441  1.22058
5.78000  0.58359  1.29666  369.75513  5.95131  88083.54133  236.64513  1.19914
5.82000  0.58359  1.30464  363.32857  2.77836  88861.78744  237.27539  1.17662
5.86000  0.58359  1.30633  356.74769  -0.07876  89380.61213  238.35078  1.15266
5.90000  0.58359  1.29869  350.06401  -2.36775  89500.73799  240.07580  1.12702
5.94000  0.58359  1.27862  343.59290  -3.88438  89034.06011  242.57284  1.10053
5.98000  0.58359  1.24359  338.11359  -4.61599  87723.75007  245.73428  1.07602
6.00000  0.58359  1.24359  338.11359  -4.61599  87723.75007  245.73428  1.07602
-0.96000  0.81094  1.08960  164.37691  0.00442  86024.58388  275.03243  0.49442
-0.94000  0.81094  1.09508  162.69089  0.00447  86630.24981  275.58310  0.48886
-0.90000  0.81094  1.09317  163.25750  0.00321  86419.47082  275.39175  0.49074
-0.86000  0.81094  1.09134  163.82665  0.00104  86216.66071  275.20739  0.49261
-0.82000  0.81094  1.08956  164.40823  -0.00192  86020.58033  275.02892  0.49452
-0.78000  0.81094  1.08784  165.01054  -0.00558  85830.37216  274.85562  0.49649
-0.74000  0.81094  1.08616  165.64105  -0.00990  85645.33117  274.68688  0.49854
-0.70000  0.81094  1.08452  166.30678  -0.01483  85464.79573  274.52213  0.50069
-0.66000  0.81094  1.08291  167.01454  -0.02037  85288.07921  274.36079  0.50297
-0.62000  0.81094  1.08133  167.77115  -0.02649  85114.41431  274.20219  0.50540
-0.58000  0.81094  1.07977  168.58373  -0.03321  84942.89818  274.04552  0.50799
-0.54000  0.81094  1.07822  169.45999  -0.04055  84772.43058  273.88980  0.51077
-0.50000  0.81094  1.07666  170.40868  -0.04857  84601.63778  273.73378  0.51378
-0.46000  0.81094  1.07508  171.44023  -0.05739  84428.77311  273.57586  0.51704
-0.42000  0.81094  1.07346  172.56758  -0.06719  84251.58098  273.41398  0.52059
-0.38000  0.81094  1.07177  173.80757  -0.07824  84067.10324  273.24539  0.52450
-0.34000  0.81094  1.06997  175.18288  -0.09101  83871.39167  273.06647  0.52882
-0.30000  0.81094  1.06802  176.72535  -0.10622  83659.06140  272.87224  0.53367
-0.26000  0.81094  1.06585  178.48140  -0.12508  83422.56148  272.65579  0.53918
-0.22000  0.81094  1.06335  180.52198  -0.14971  83150.91313  272.40707  0.54560
-0.18000  0.81094  1.06036  182.96191  -0.18399  82827.37640  272.11090  0.55327
-0.14000  0.81094  1.05664  186.00077  -0.23579  82424.77273  271.74304  0.56284
-0.10000  0.81094  1.05171  190.01916  -0.32254  81895.10067  271.26191  0.57551
-0.06000  0.81094  1.04464  195.83546  -0.48811  81143.07366  270.59062  0.59386
-0.02000  0.81094  1.03300  205.48134  -0.82007  79924.93193  269.53032  0.62434
0.02747  0.80506  0.96213  209.71090  -41.80301  72916.50535  264.00965  0.65648
0.07970  0.79388  1.02073  186.38909  -39.91840  79247.61685  270.46104  0.57817
0.12697  0.78376  1.04310  177.19892  -38.12659  81706.57317  272.87240  0.54734
0.17015  0.77452  1.05526  171.99052  -37.04141  83053.16510  274.17351  0.53001
0.20989  0.76601  1.06358  168.35311  -36.27655  83979.08068  275.05996  0.51798
0.24670  0.75813  1.06996  165.53574  -35.67964  84690.46307  275.73627  0.50869
0.28098  0.75080  1.07516  163.21791  -35.18485  85271.14260  276.28514  0.50107
0.31306  0.74393  1.07955  161.23356  -34.75826  85763.07231  276.74786  0.49457
0.34320  0.73748  1.08336  159.48568  -34.38008  86190.25110  277.14798  0.48885
0.37163  0.73139  1.08673  157.91263  -34.03774  86567.79104  277.50035  0.48372
0.39852  0.72564  1.08974  156.47274  -33.72273  86905.94842  277.81498  0.47904
0.42404  0.72018  1.09246  155.13639  -33.42901  87212.11245  278.09910  0.47470
0.44832  0.71498  1.09494  153.88170  -33.15210  87491.86370  278.35814  0.47064
0.47148  0.71002  1.09723  152.69196  -32.88857  87749.57508  278.59633  0.46679
0.49361  0.70528  1.09935  151.55412  -32.63574  87988.77226  278.81706  0.46313
0.51480  0.70075  1.10133  150.45777  -32.39147  88212.35604  279.02312  0.45960
0.53513  0.69640  1.10319  149.39450  -32.15403  88422.74738  279.21682  0.45619
0.55466  0.69222  1.10495  148.35745  -31.92198  88621.98453  279.40008  0.45287
0.57346  0.68819  1.10662  147.34102  -31.69417  88811.79347  279.57452  0.44962
0.59158  0.68431  1.10823  146.34056  -31.46963  88993.63740  279.74151  0.44643
0.60907  0.68057  1.10977  145.35224  -31.24755  89168.75813  279.90220  0.44328
0.62596  0.67696  1.11126  144.37292  -31.02727  89338.20933  280.05757  0.44017
0.64230  0.67346  1.11271  143.39997  -30.80822  89502.88449  280.20844  0.43708
0.65813  0.67007  1.11413  142.43121  -30.58996  89663.54129  280.35551  0.43400
0.67346  0.66679  1.11551  141.46485  -30.37208  89820.82292  280.49935  0.43094
0.68835  0.66360  1.11686  140.49936  -30.15424  89975.27712  280.64046  0.42789
0.70280  0.66051  1.11820  139.53344  -29.93616  90127.37308  280.77926  0.42483
0.71684  0.65750  1.11952  138.56591  -29.71757  90277.51589  280.91610  0.42178
0.73050  0.65458  1.12082  137.59574  -29.49820  90426.05778  281.05132  0.41872
0.74380  0.65173  1.12211  136.62196  -29.27783  90573.30912  281.18517  0.41565
0.75676  0.64896  1.12339  135.64364  -29.05623  90719.54932  281.31791  0.41257
0.76938  0.64626  1.12467  134.65983  -28.83314  90865.03520  281.44976  0.40947
0.78170  0.64362  1.12593  133.66960  -28.60832  91010.00828  281.58092  0.40636
0.79372  0.64105  1.12720  132.67191  -28.38149  91154.70066  281.71159  0.40322
0.80545  0.63854  1.12847  131.66568  -28.15236  91299.33926  281.84195  0.40006
0.81692  0.63608  1.12974  130.64968  -27.92052  91444.13377  281.97218  0.39687
0.82813  0.63368  1.13101  129.62256  -27.68572  91589.34965  282.10249  0.39365
0.83910  0.63133  1.13228  128.58295  -27.44756  91735.21518  282.23309  0.39040
0.84982  0.62904  1.13357  127.52935  -27.20564  91881.96802  282.36416  0.38710
0.86033  0.62679  1.13486  126.46024  -26.95958  92029.85060  282.49591  0.38375
0.87062  0.62459  1.13617  125.37406  -26.70900  92179.10487  282.62854  0.38035
0.88070  0.62243  1.13749  124.26939  -26.45364  92329.96459  282.76225  0.37690
0.89058  0.62031  1.13883  123.14511  -26.19334  92482.64375  282.89721  0.37339
0.90027  0.61824  1.14019  122.00058  -25.92821  92637.32092  283.03356  0.36982
0.90977  0.61621  1.14156  120.83614  -25.65883  92794.12389  283.17141  0.36618
0.91910  0.61421  1.14295  119.65361  -25.38640  92953.07862  283.31074  0.36250
0.92826  0.61225  1.14436  118.45654  -25.11173  93113.81503  283.45120  0.35877
0.93725  0.61032  1.14578  117.25071  -24.83784  93276.02365  283.59245  0.35502
0.94608  0.60843  1.14721  116.04593  -24.56896  93439.05103  283.73384  0.35127
0.95476  0.60658  1.14864  114.85730  -24.31125  93601.79983  283.87428  0.34759
0.96330  0.60475  1.15006  113.70706  -24.07349  93762.57525  284.01214  0.34403
0.97168  0.60295  1.15144  112.62697  -23.86798  93918.86657  284.14500  0.34069
0.97994  0.60119  1.15275  111.66126  -23.71153  94067.03844  284.26950  0.33773
0.98805  0.59945  1.15395  110.87047  -23.62682  94201.88379  284.38094  0.33532
0.99604  0.59774  1.15496  110.33414  -23.63944  94315.11964  284.47253  0.33372
1.00272  0.59689  1.16444  113.15279  -10.09826  95574.81629  285.92589  0.33513
1.00818  0.59689  1.15724  124.00928  -3.52602  94635.91071  284.87942  0.36665
1.01370  0.59689  1.15356  133.84542  -0.81259  94033.29622  283.96757  0.39621
1.01929  0.59689  1.15211  143.42978  0.60452  93607.29788  283.03810  0.42528
1.02494  0.59689  1.15257  152.65704  1.54293  93342.59335  282.12288  0.45339
1.03065  0.59689  1.15426  161.60107  2.28510  93169.94689  281.18962  0.48077
1.03643  0.59689  1.15677  170.28279  2.93535  93051.83462  280.22455  0.50750
1.04228  0.59689  1.15989  178.68220  3.53781  92970.94402  279.22688  0.53350
1.04819  0.59689  1.16345  186.74242  4.11006  92916.81872  278.21074  0.55861
1.05418  0.59689  1.16722  194.51003  4.65020  92869.05854  277.16876  0.58297
1.06024  0.59689  1.17115  201.99597  5.15806  92824.37025  276.10605  0.60659
1.06637  0.59689  1.17520  209.21194  5.63485  92781.06410  275.02746  0.62951
1.07258  0.59689  1.17933  216.17013  6.08240  92738.25616  273.93727  0.65177
1.07887  0.59689  1.18353  222.88271  6.50273  92695.48885  272.83921  0.67338
1.08524  0.59689  1.18778  229.36147  6.89779  92652.51937  271.73651  0.69437
1.09169  0.59689  1.19207  235.61775  7.26924  92609.18581  270.63196  0.71478
1.09822  0.59689  1.19639  241.66281  7.61885  92565.14767  269.52776  0.73464
1.10484  0.59689  1.20071  247.50782  7.94880  92519.84625  268.42554  0.75396
1.11155  0.59689  1.20504  253.16214  8.26059  92473.20279  267.32706  0.77278
1.11836  0.59689  1.20936  258.63430  8.55544  92425.20381  266.23390  0.79112
1.12525  0.59689  1.21366  263.93228  8.83439  92375.83468  265.14747  0.80899
1.13224  0.59689  1.21795  269.06353  9.09841  92325.08531  264.06900  0.82641
1.13933  0.59689  1.22221  274.03500  9.34845  92272.95189  262.99957  0.84339
1.14652  0.59689  1.22644  278.85326  9.58539  92219.44128  261.94011  0.85997
1.15382  0.59689  1.23064  283.52450  9.81010  92164.57873  260.89146  0.87613
1.16123  0.59689  1.23480  288.05457  10.02343  92108.40679  259.85434  0.89191
1.16874  0.59689  1.23892  292.44906  10.22618  92050.97314  258.82937  0.90732
1.17638  0.59689  1.24299  296.71333  10.41916  91992.32945  257.81706  0.92236
1.18413  0.59689  1.24701  300.85253  10.60313  91932.52722  256.81784  0.93704
1.19200  0.59689  1.25099  304.87163  10.77884  91871.61247  255.83205  0.95139
1.20000  0.59689  1.25491  308.77545  10.94701  91809.61982  254.85993  0.96542