Title="NOZZLE"
Variables="x","y","dens","velx","vely","spre","ttem","mach"
Zone T="NOZZLE" i=331,j=71,f=point 
-1.20000  0.00000  1.53467  400.00000  0.00000  101325.00000  230.00000  1.31567
-1.18000  0.00000  1.03461  463.70821  0.00000  63253.67903  212.97783  1.58499
-1.16000  0.00000  1.03461  463.70821  0.00000  63253.67903  212.97783  1.58499
-1.14000  0.00000  1.03461  463.70821  0.00000  63253.67903  212.97783  1.58499
-1.12000  0.00000  1.03461  463.70821  0.00000  63253.67904  212.97783  1.58499
-1.10000  0.00000  1.03461  463.70821  0.00000  63253.67904  212.97783  1.58499
-1.08000  0.00000  1.03461  463.70821  0.00000  63253.67907  212.97783  1.58499
-1.06000  0.00000  1.03461  463.70821  0.00000  63253.67920  212.97783  1.58499
-1.04000  0.00000  1.03461  463.70821  0.00000  63253.67976  212.97784  1.58499
-1.02000  0.00000  1.03461  463.70821  0.00000  63253.68181  212.97784  1.58499
-1.00000  0.00000  1.03473  463.69851  0.00000  63258.27560  212.96956  1.58499
-0.93987  0.00000  1.03522  463.63927  0.00000  63286.50855  212.96472  1.58481
-0.88621  0.00000  1.03646  463.45550  0.00000  63374.30014  213.00439  1.58403
-0.83775  0.00000  1.03900  463.04657  0.00000  63569.94203  213.13923  1.58213
-0.79357  0.00000  1.04354  462.28562  0.00000  63934.63892  213.43040  1.57845
-0.75299  0.00000  1.05089  461.02319  0.00000  64541.33913  213.94794  1.57224
-0.71545  0.00000  1.06198  459.09477  0.00000  65472.09001  214.76694  1.56267
-0.68053  0.00000  1.07774  456.33471  0.00000  66812.67430  215.96035  1.54898
-0.64789  0.00000  1.09898  452.59940  0.00000  68642.91486  217.58749  1.53055
-0.61726  0.00000  1.12624  447.79958  0.00000  71021.83612  219.67865  1.50709
-0.58839  0.00000  1.15957  441.93621  0.00000  73969.18653  222.21933  1.47883
-0.56110  0.00000  1.19835  435.12760  0.00000  77448.16705  225.14039  1.44657
-0.53522  0.00000  1.24130  427.61380  0.00000  81356.64373  228.32058  1.41166
-0.51062  0.00000  1.28652  419.73041  0.00000  85533.14079  231.60340  1.37578
-0.48717  0.00000  1.33186  411.85691  0.00000  89778.78311  234.82380  1.34068
-0.46477  0.00000  1.37521  404.35535  0.00000  93889.60843  237.83541  1.30790
-0.44333  0.00000  1.41483  397.51758  0.00000  97689.37875  240.53042  1.27856
-0.42277  0.00000  1.44959  391.53344  0.00000  101053.46662  242.84802  1.25329
-0.40303  0.00000  1.47897  386.48350  0.00000  103918.64148  244.77234  1.23225
-0.38403  0.00000  1.50304  382.35286  0.00000  106278.93878  246.32318  1.21524
-0.36573  0.00000  1.52226  379.05774  0.00000  108171.87016  247.54361  1.20179
-0.34808  0.00000  1.53735  376.47584  0.00000  109660.87130  248.48782  1.19134
-0.33103  0.00000  1.54908  374.47300  0.00000  110819.13890  249.21141  1.18328
-0.31454  0.00000  1.55818  372.92199  0.00000  111717.82972  249.76515  1.17707
-0.29858  0.00000  1.56529  371.71293  0.00000  112419.26816  250.19183  1.17225
-0.28311  0.00000  1.57092  370.75702  0.00000  112974.26862  250.52547  1.16846
-0.26811  0.00000  1.57548  369.98595  0.00000  113422.13757  250.79192  1.16541
-0.25354  0.00000  1.57924  369.34918  0.00000  113792.06197  251.01016  1.16290
-0.23938  0.00000  1.58243  368.81055  0.00000  114104.99226  251.19368  1.16078
-0.22562  0.00000  1.58518  368.34489  0.00000  114375.51526  251.35180  1.15895
-0.21222  0.00000  1.58760  367.93524  0.00000  114613.48665  251.49079  1.15734
-0.19917  0.00000  1.58975  367.57049  0.00000  114825.35387  251.61469  1.15591
-0.18646  0.00000  1.59167  367.24364  0.00000  115015.18128  251.72607  1.15462
-0.17406  0.00000  1.59340  366.95045  0.00000  115185.42350  251.82642  1.15347
-0.16196  0.00000  1.59493  366.68846  0.00000  115337.50400  251.91661  1.15244
-0.15015  0.00000  1.59628  366.45617  0.00000  115472.25938  251.99712  1.15153
-0.13861  0.00000  1.59746  366.25243  0.00000  115590.31557  252.06832  1.15072
-0.12733  0.00000  1.59848  366.07568  0.00000  115692.47243  252.13065  1.15003
-0.11629  0.00000  1.59935  365.92308  0.00000  115780.18787  252.18499  1.14942
-0.10550  0.00000  1.60009  365.78914  0.00000  115856.26147  252.23303  1.14889
-0.09493  0.00000  1.60077  365.66386  0.00000  115925.79864  252.27789  1.14840
-0.08459  0.00000  1.60146  365.53030  0.00000  115997.45132  252.32493  1.14787
-0.07445  0.00000  1.60230  365.36203  0.00000  116084.71598  252.38246  1.14721
-0.06452  0.00000  1.60347  365.12174  0.00000  116206.64953  252.46226  1.14628
-0.05477  0.00000  1.60522  364.76358  0.00000  116386.72695  252.57880  1.14489
-0.04522  0.00000  1.60776  364.24269  0.00000  116648.01606  252.74623  1.14287
-0.03584  0.00000  1.61121  363.53454  0.00000  117003.39435  252.97222  1.14014
-0.02664  0.00000  1.61549  362.65978  0.00000  117442.72738  253.25012  1.13677
-0.01760  0.00000  1.62017  361.69976  0.00000  117924.54581  253.55400  1.13309
-0.00872  0.00000  1.62461  360.78355  0.00000  118382.19690  253.84271  1.12957
-0.00000  0.00000  1.62832  360.03231  0.00000  118763.85888  254.08024  1.12669
0.00406  0.00000  1.63132  359.41959  0.00000  119072.54295  254.27324  1.12435
0.00853  0.00000  1.63327  359.00675  0.00000  119275.17215  254.40194  1.12277
0.01349  0.00000  1.63398  358.82828  0.00000  119352.58271  254.45507  1.12210
0.01906  0.00000  1.63341  358.89479  0.00000  119298.10824  254.42897  1.12236
0.02543  0.00000  1.63152  359.20561  0.00000  119110.89077  254.32344  1.12357
0.03285  0.00000  1.62827  359.76643  0.00000  118786.21282  254.13601  1.12574
0.04175  0.00000  1.62344  360.61363  0.00000  118301.83036  253.85377  1.12902
0.05286  0.00000  1.61631  361.86520  0.00000  117588.85167  253.43598  1.13387
0.06764  0.00000  1.60468  363.90282  0.00000  116427.08910  252.75108  1.14180
0.08983  0.00000  1.58431  367.45579  0.00000  114397.48436  251.53803  1.15572
0.12480  0.00000  1.56409  370.98542  0.00000  112388.38674  250.31506  1.16967
0.15727  0.00000  1.54469  374.37410  0.00000  110467.29327  249.12708  1.18316
0.18758  0.00000  1.52651  377.54927  0.00000  108675.14109  248.00332  1.19590
0.21599  0.00000  1.50980  380.47016  0.00000  107034.08635  246.96164  1.20769
0.24273  0.00000  1.49466  383.11813  0.00000  105553.29720  246.01163  1.21844
0.26799  0.00000  1.48112  385.48950  0.00000  104233.31733  245.15705  1.22812
0.29192  0.00000  1.46913  387.59040  0.00000  103069.15884  244.39763  1.23673
0.31466  0.00000  1.45862  389.43325  0.00000  102052.41943  243.73039  1.24431
0.33631  0.00000  1.44949  391.03436  0.00000  101172.71002  243.15051  1.25091
0.35698  0.00000  1.44164  392.41225  0.00000  100418.61540  242.65203  1.25661
0.37675  0.00000  1.43496  393.58652  0.00000  99778.34451  242.22833  1.26147
0.39570  0.00000  1.42932  394.57699  0.00000  99240.17435  241.87247  1.26558
0.41389  0.00000  1.42461  395.40316  0.00000  98792.75466  241.57748  1.26900
0.43138  0.00000  1.42073  396.08376  0.00000  98425.31576  241.33654  1.27182
0.44822  0.00000  1.41757  396.63645  0.00000  98127.80661  241.14314  1.27410
0.46446  0.00000  1.41504  397.07763  0.00000  97890.98016  240.99120  1.27592
0.48015  0.00000  1.41305  397.42231  0.00000  97706.43791  240.87508  1.27734
0.49531  0.00000  1.41153  397.68404  0.00000  97566.64195  240.78969  1.27841
0.50998  0.00000  1.41041  397.87493  0.00000  97464.90154  240.73047  1.27918
0.52419  0.00000  1.40962  398.00567  0.00000  97395.33969  240.69337  1.27970
0.53797  0.00000  1.40911  398.08559  0.00000  97352.84518  240.67486  1.28000
0.55135  0.00000  1.40884  398.12277  0.00000  97333.01432  240.67188  1.28013
0.56435  0.00000  1.40877  398.12411  0.00000  97332.08662  240.68183  1.28011
0.57698  0.00000  1.40886  398.09550  0.00000  97346.87779  240.70247  1.27996
0.58927  0.00000  1.40909  398.04188  0.00000  97374.71275  240.73196  1.27971
0.60124  0.00000  1.40944  397.96740  0.00000  97413.36088  240.76872  1.27937
0.61291  0.00000  1.40988  397.87549  0.00000  97460.97517  240.81147  1.27896
0.62428  0.00000  1.41039  397.76899  0.00000  97516.03604  240.85915  1.27849
0.63537  0.00000  1.41098  397.65021  0.00000  97577.30077  240.91090  1.27798
0.64620  0.00000  1.41161  397.52105  0.00000  97643.75841  240.96602  1.27741
0.65678  0.00000  1.41230  397.38305  0.00000  97714.59038  241.02393  1.27682
0.66712  0.00000  1.41302  397.23746  0.00000  97789.13635  241.08419  1.27619
0.67723  0.00000  1.41378  397.08529  0.00000  97866.86499  241.14642  1.27554
0.68712  0.00000  1.41457  396.92734  0.00000  97947.34923  241.21034  1.27486
0.69680  0.00000  1.41538  396.76427  0.00000  98030.24549  241.27572  1.27416
0.70627  0.00000  1.41622  396.59661  0.00000  98115.27625  241.34235  1.27345
0.71556  0.00000  1.41708  396.42482  0.00000  98202.21567  241.41010  1.27272
0.72465  0.00000  1.41795  396.24924  0.00000  98290.87772  241.47884  1.27197
0.73357  0.00000  1.41884  396.07019  0.00000  98381.10644  241.54847  1.27122
0.74232  0.00000  1.41975  395.88794  0.00000  98472.76791  241.61889  1.27045
0.75091  0.00000  1.42067  395.70272  0.00000  98565.74380  241.69003  1.26967
0.75933  0.00000  1.42161  395.51478  0.00000  98659.92606  241.76183  1.26887
0.76760  0.00000  1.42256  395.32431  0.00000  98755.21265  241.83420  1.26807
0.77573  0.00000  1.42351  395.13153  0.00000  98851.50411  241.90710  1.26726
0.78371  0.00000  1.42448  394.93665  0.00000  98948.70085  241.98044  1.26645
0.79155  0.00000  1.42546  394.73989  0.00000  99046.70097  242.05417  1.26562
0.79926  0.00000  1.42644  394.54149  0.00000  99145.39861  242.12822  1.26479
0.80684  0.00000  1.42743  394.34168  0.00000  99244.68280  242.20251  1.26396
0.81430  0.00000  1.42843  394.14072  0.00000  99344.43656  242.27697  1.26312
0.82164  0.00000  1.42943  393.93887  0.00000  99444.53650  242.35151  1.26228
0.82886  0.00000  1.43043  393.73643  0.00000  99544.85259  242.42604  1.26144
0.83597  0.00000  1.43143  393.53369  0.00000  99645.24830  242.50048  1.26059
0.84297  0.00000  1.43244  393.33095  0.00000  99745.58097  242.57472  1.25975
0.84986  0.00000  1.43344  393.12855  0.00000  99845.70239  242.64868  1.25891
0.85665  0.00000  1.43443  392.92681  0.00000  99945.45961  242.72224  1.25807
0.86334  0.00000  1.43543  392.72607  0.00000  100044.69582  242.79531  1.25724
0.86993  0.00000  1.43641  392.52667  0.00000  100143.25145  242.86777  1.25642
0.87643  0.00000  1.43739  392.32898  0.00000  100240.96526  242.93952  1.25560
0.88284  0.00000  1.43836  392.13332  0.00000  100337.67543  243.01045  1.25479
0.88916  0.00000  1.43931  391.94006  0.00000  100433.22065  243.08045  1.25399
0.89539  0.00000  1.44025  391.74954  0.00000  100527.44114  243.14942  1.25320
0.90154  0.00000  1.44118  391.56208  0.00000  100620.17943  243.21725  1.25243
0.90761  0.00000  1.44209  391.37803  0.00000  100711.28109  243.28384  1.25167
0.91359  0.00000  1.44298  391.19770  0.00000  100800.59519  243.34909  1.25092
0.91950  0.00000  1.44385  391.02142  0.00000  100887.97457  243.41290  1.25020
0.92533  0.00000  1.44470  390.84947  0.00000  100973.27590  243.47519  1.24949
0.93109  0.00000  1.44553  390.68216  0.00000  101056.35958  243.53585  1.24880
0.93678  0.00000  1.44634  390.51979  0.00000  101137.08950  243.59480  1.24813
0.94240  0.00000  1.44712  390.36262  0.00000  101215.33275  243.65195  1.24748
0.94795  0.00000  1.44787  390.21095  0.00000  101290.95925  243.70722  1.24685
0.95343  0.00000  1.44860  390.06503  0.00000  101363.84159  243.76052  1.24625
0.95884  0.00000  1.44929  389.92514  0.00000  101433.85487  243.81177  1.24567
0.96420  0.00000  1.44996  389.79153  0.00000  101500.87691  243.86090  1.24512
0.96949  0.00000  1.45059  389.66445  0.00000  101564.78862  243.90783  1.24459
0.97472  0.00000  1.45119  389.54416  0.00000  101625.47481  243.95248  1.24410
0.97989  0.00000  1.45176  389.43089  0.00000  101682.82526  243.99477  1.24363
0.98500  0.00000  1.45229  389.32486  0.00000  101736.73615  244.03466  1.24319
0.99005  0.00000  1.45279  389.22628  0.00000  101787.11184  244.07206  1.24278
0.99505  0.00000  1.45325  389.13532  0.00000  101833.86678  244.10693  1.24240
1.00000  0.00000  1.45368  389.05438  0.00000  101875.58851  244.13474  1.24207
1.00543  0.00000  1.45409  388.97849  0.00000  101915.20486  244.16110  1.24176
1.01093  0.00000  1.45447  388.90888  0.00000  101952.04872  244.18556  1.24147
1.01648  0.00000  1.45481  388.84631  0.00000  101985.70673  244.20785  1.24122
1.02210  0.00000  1.45512  388.79129  0.00000  102015.90521  244.22777  1.24099
1.02778  0.00000  1.45540  388.74418  0.00000  102042.45989  244.24520  1.24080
1.03352  0.00000  1.45564  388.70518  0.00000  102065.25229  244.26007  1.24063
1.03934  0.00000  1.45583  388.67440  0.00000  102084.21749  244.27232  1.24050
1.04522  0.00000  1.45599  388.65185  0.00000  102099.33719  244.28195  1.24041
1.05117  0.00000  1.45611  388.63748  0.00000  102110.63517  244.28898  1.24034
1.05719  0.00000  1.45619  388.63111  0.00000  102118.17361  244.29344  1.24031
1.06329  0.00000  1.45624  388.63254  0.00000  102122.04985  244.29541  1.24031
1.06946  0.00000  1.45624  388.64147  0.00000  102122.39304  244.29497  1.24034
1.07571  0.00000  1.45622  388.65755  0.00000  102119.36064  244.29224  1.24040
1.08203  0.00000  1.45616  388.68039  0.00000  102113.13468  244.28733  1.24049
1.08844  0.00000  1.45607  388.70953  0.00000  102103.91781  244.28038  1.24060
1.09493  0.00000  1.45595  388.74450  0.00000  102091.92931  244.27155  1.24073
1.10151  0.00000  1.45580  388.78479  0.00000  102077.40091  244.26099  1.24089
1.10818  0.00000  1.45564  388.82987  0.00000  102060.57278  244.24887  1.24106
1.11493  0.00000  1.45545  388.87923  0.00000  102041.68953  244.23535  1.24125
1.12178  0.00000  1.45524  388.93232  0.00000  102020.99651  244.22059  1.24146
1.12872  0.00000  1.45502  388.98861  0.00000  101998.73624  244.20478  1.24168
1.13576  0.00000  1.45478  389.04760  0.00000  101975.14531  244.18806  1.24191
1.14290  0.00000  1.45453  389.10878  0.00000  101950.45154  244.17059  1.24215
1.15015  0.00000  1.45427  389.17168  0.00000  101924.87153  244.15253  1.24240
1.15750  0.00000  1.45401  389.23587  0.00000  101898.60871  244.13400  1.24265
1.16496  0.00000  1.45374  389.30093  0.00000  101871.85176  244.11514  1.24290
1.17253  0.00000  1.45347  389.36648  0.00000  101844.77342  244.09607  1.24316
1.18022  0.00000  1.45319  389.43219  0.00000  101817.52983  244.07689  1.24342
1.18803  0.00000  1.45292  389.49775  0.00000  101790.26012  244.05770  1.24368
1.19597  0.00000  1.45264  389.56290  0.00000  101763.08649  244.03859  1.24394
1.20403  0.00000  1.45237  389.62741  0.00000  101736.11454  244.01961  1.24419
1.21222  0.00000  1.45210  389.69108  0.00000  101709.43392  244.00085  1.24444
1.22055  0.00000  1.45184  389.75375  0.00000  101683.11920  243.98235  1.24469
1.22902  0.00000  1.45158  389.81530  0.00000  101657.23100  243.96414  1.24493
1.23764  0.00000  1.45132  389.87562  0.00000  101631.81728  243.94627  1.24517
1.24641  0.00000  1.45107  389.93463  0.00000  101606.91475  243.92876  1.24540
1.25534  0.00000  1.45082  389.99228  0.00000  101582.55058  243.91162  1.24563
1.26442  0.00000  1.45058  390.04853  0.00000  101558.74412  243.89488  1.24585
1.27368  0.00000  1.45035  390.10335  0.00000  101535.50891  243.87854  1.24607
1.28311  0.00000  1.45012  390.15674  0.00000  101512.85482  243.86260  1.24628
1.29272  0.00000  1.44989  390.20867  0.00000  101490.79032  243.84708  1.24649
1.30252  0.00000  1.44968  390.25913  0.00000  101469.32492  243.83199  1.24669
1.31252  0.00000  1.44947  390.30812  0.00000  101448.47150  243.81732  1.24688
1.32272  0.00000  1.44926  390.35560  0.00000  101428.24868  243.80310  1.24707
1.33313  0.00000  1.44906  390.40153  0.00000  101408.68280  243.78935  1.24725
1.34376  0.00000  1.44887  390.44586  0.00000  101389.80954  243.77608  1.24743
1.35463  0.00000  1.44869  390.48851  0.00000  101371.67486  243.76333  1.24760
1.36573  0.00000  1.44852  390.52939  0.00000  101354.33526  243.75114  1.24776
1.37709  0.00000  1.44835  390.56839  0.00000  101337.85714  243.73955  1.24791
1.38872  0.00000  1.44819  390.60538  0.00000  101322.31541  243.72863  1.24806
1.40062  0.00000  1.44804  390.64022  0.00000  101307.79119  243.71842  1.24819
1.41280  0.00000  1.44791  390.67278  0.00000  101294.36908  243.70898  1.24832
1.42530  0.00000  1.44778  390.70290  0.00000  101282.13400  243.70037  1.24844
1.43811  0.00000  1.44767  390.73045  0.00000  101271.16792  243.69266  1.24855
1.45126  0.00000  1.44758  390.75530  0.00000  101261.54690  243.68589  1.24865
1.46477  0.00000  1.44749  390.77734  0.00000  101253.33848  243.68010  1.24873
1.47865  0.00000  1.44743  390.79648  0.00000  101246.59980  243.67535  1.24880
1.49293  0.00000  1.44737  390.81263  0.00000  101241.37630  243.67166  1.24887
1.50763  0.00000  1.44734  390.82576  0.00000  101237.70126  243.66906  1.24891
1.52277  0.00000  1.44731  390.83584  0.00000  101235.59583  243.66756  1.24895
1.53839  0.00000  1.44731  390.84285  0.00000  101235.06958  243.66717  1.24897
1.55451  0.00000  1.44732  390.84680  0.00000  101236.12140  243.66789  1.24898
1.57116  0.00000  1.44735  390.84771  0.00000  101238.74055  243.66972  1.24898
1.58839  0.00000  1.44739  390.84564  0.00000  101242.90774  243.67264  1.24897
1.60624  0.00000  1.44745  390.84062  0.00000  101248.59634  243.67664  1.24894
1.62474  0.00000  1.44752  390.83271  0.00000  101255.77324  243.68169  1.24890
1.64396  0.00000  1.44761  390.82199  0.00000  101264.39948  243.68777  1.24885
1.66395  0.00000  1.44771  390.80851  0.00000  101274.43018  243.69485  1.24879
1.68476  0.00000  1.44782  390.79238  0.00000  101285.81322  243.70290  1.24872
1.70649  0.00000  1.44795  390.77368  0.00000  101298.48608  243.71188  1.24864
1.72920  0.00000  1.44809  390.75255  0.00000  101312.36994  243.72173  1.24855
1.75299  0.00000  1.44824  390.72917  0.00000  101327.36022  243.73240  1.24844
1.77796  0.00000  1.44840  390.70380  0.00000  101343.31264  243.74377  1.24833
1.80426  0.00000  1.44857  390.67681  0.00000  101360.02444  243.75573  1.24822
1.83201  0.00000  1.44874  390.64874  0.00000  101377.21039  243.76808  1.24810
1.86139  0.00000  1.44891  390.62036  0.00000  101394.47412  243.78055  1.24797
1.89261  0.00000  1.44908  390.59276  0.00000  101411.27650  243.79279  1.24785
1.92591  0.00000  1.44924  390.56735  0.00000  101426.90435  243.80431  1.24774
1.96158  0.00000  1.44937  390.54599  0.00000  101440.44691  243.81451  1.24765
2.00000  0.00000  1.44947  390.53117  0.00000  101450.62645  243.82248  1.24758
2.04000  0.00000  1.44952  390.52436  0.00000  101456.67753  243.82766  1.24755
2.08000  0.00000  1.44953  390.52585  0.00000  101458.52241  243.83001  1.24754
2.12000  0.00000  1.44951  390.53544  0.00000  101456.31712  243.82962  1.24758
2.16000  0.00000  1.44944  390.55249  0.00000  101450.43849  243.82674  1.24764
2.20000  0.00000  1.44934  390.57595  0.00000  101441.44731  243.82177  1.24773
2.24000  0.00000  1.44922  390.60450  0.00000  101430.03483  243.81518  1.24783
2.28000  0.00000  1.44908  390.63665  0.00000  101416.96155  243.80748  1.24796
2.32000  0.00000  1.44892  390.67089  0.00000  101402.99640  243.79920  1.24809
2.36000  0.00000  1.44877  390.70576  0.00000  101388.86334  243.79084  1.24822
2.40000  0.00000  1.44862  390.73997  0.00000  101375.19972  243.78284  1.24835
2.44000  0.00000  1.44849  390.77247  0.00000  101362.52852  243.77554  1.24847
2.48000  0.00000  1.44836  390.80244  0.00000  101351.24443  243.76924  1.24858
2.52000  0.00000  1.44826  390.82932  0.00000  101341.61230  243.76410  1.24868
2.56000  0.00000  1.44817  390.85281  0.00000  101333.77533  243.76023  1.24877
2.60000  0.00000  1.44810  390.87280  0.00000  101327.77021  243.75766  1.24884
2.64000  0.00000  1.44804  390.88937  0.00000  101323.54602  243.75634  1.24889
2.68000  0.00000  1.44801  390.90275  0.00000  101320.98459  243.75621  1.24894
2.72000  0.00000  1.44799  390.91323  0.00000  101319.91999  243.75714  1.24897
2.76000  0.00000  1.44798  390.92118  0.00000  101320.15608  243.75900  1.24899
2.80000  0.00000  1.44798  390.92702  0.00000  101321.48117  243.76166  1.24900
2.84000  0.00000  1.44799  390.93114  0.00000  101323.67959  243.76496  1.24901
2.88000  0.00000  1.44801  390.93395  0.00000  101326.54034  243.76876  1.24900
2.92000  0.00000  1.44804  390.93583  0.00000  101329.86347  243.77293  1.24900
2.96000  0.00000  1.44806  390.93711  0.00000  101333.46444  243.77734  1.24899
3.00000  0.00000  1.44809  390.93811  0.00000  101337.17741  243.78189  1.24898
3.04000  0.00000  1.44811  390.93909  0.00000  101340.85763  243.78647  1.24898
3.08000  0.00000  1.44814  390.94027  0.00000  101344.38348  243.79100  1.24897
3.12000  0.00000  1.44816  390.94182  0.00000  101347.65798  243.79543  1.24896
3.16000  0.00000  1.44817  390.94387  0.00000  101350.60982  243.79971  1.24896
3.20000  0.00000  1.44819  390.94647  0.00000  101353.19360  243.80381  1.24895
3.24000  0.00000  1.44819  390.94964  0.00000  101355.38913  243.80772  1.24895
3.28000  0.00000  1.44820  390.95336  0.00000  101357.19953  243.81146  1.24896
3.32000  0.00000  1.44820  390.95754  0.00000  101358.64806  243.81503  1.24896
3.36000  0.00000  1.44819  390.96209  0.00000  101359.77403  243.81848  1.24897
3.40000  0.00000  1.44818  390.96686  0.00000  101360.62787  243.82185  1.24897
3.44000  0.00000  1.44817  390.97173  0.00000  101361.26584  243.82518  1.24898
3.48000  0.00000  1.44816  390.97655  0.00000  101361.74497  243.82851  1.24899
3.52000  0.00000  1.44815  390.98118  0.00000  101362.11837  243.83190  1.24899
3.56000  0.00000  1.44813  390.98550  0.00000  101362.43151  243.83537  1.24900
3.60000  0.00000  1.44811  390.98940  0.00000  101362.71959  243.83897  1.24900
3.64000  0.00000  1.44809  390.99281  0.00000  101363.00600  243.84272  1.24900
3.68000  0.00000  1.44808  390.99568  0.00000  101363.30207  243.84664  1.24900
3.72000  0.00000  1.44806  390.99798  0.00000  101363.60781  243.85072  1.24900
3.76000  0.00000  1.44803  390.99970  0.00000  101363.91349  243.85499  1.24899
3.80000  0.00000  1.44801  391.00084  0.00000  101364.20194  243.85943  1.24899
3.84000  0.00000  1.44799  391.00141  0.00000  101364.45113  243.86405  1.24898
3.88000  0.00000  1.44796  391.00144  0.00000  101364.63694  243.86883  1.24896
3.92000  0.00000  1.44794  391.00094  0.00000  101364.73578  243.87378  1.24895
3.96000  0.00000  1.44790  390.99992  0.00000  101364.72687  243.87889  1.24893
4.00000  0.00000  1.44787  390.99839  0.00000  101364.59402  243.88416  1.24891
4.04000  0.00000  1.44784  390.99633  0.00000  101364.32688  243.88959  1.24889
4.08000  0.00000  1.44780  390.99372  0.00000  101363.92142  243.89521  1.24887
4.12000  0.00000  1.44775  390.99051  0.00000  101363.37991  243.90102  1.24885
4.16000  0.00000  1.44771  390.98667  0.00000  101362.71034  243.90704  1.24882
4.20000  0.00000  1.44766  390.98213  0.00000  101361.92537  243.91330  1.24879
4.24000  0.00000  1.44761  390.97682  0.00000  101361.04109  243.91982  1.24875
4.28000  0.00000  1.44755  390.97067  0.00000  101360.07556  243.92662  1.24872
4.32000  0.00000  1.44750  390.96362  0.00000  101359.04744  243.93374  1.24868
4.36000  0.00000  1.44744  390.95560  0.00000  101357.97477  243.94119  1.24863
4.40000  0.00000  1.44738  390.94655  0.00000  101356.87385  243.94900  1.24858
4.44000  0.00000  1.44731  390.93641  0.00000  101355.75853  243.95720  1.24853
4.48000  0.00000  1.44724  390.92514  0.00000  101354.63967  243.96579  1.24847
4.52000  0.00000  1.44718  390.91270  0.00000  101353.52499  243.97480  1.24841
4.56000  0.00000  1.44710  390.89908  0.00000  101352.41903  243.98424  1.24834
4.60000  0.00000  1.44703  390.88425  0.00000  101351.32341  243.99412  1.24827
4.64000  0.00000  1.44695  390.86822  0.00000  101350.23717  244.00444  1.24819
4.68000  0.00000  1.44687  390.85099  0.00000  101349.15726  244.01520  1.24811
4.72000  0.00000  1.44679  390.83258  0.00000  101348.07896  244.02641  1.24802
4.76000  0.00000  1.44671  390.81302  0.00000  101346.99644  244.03805  1.24793
4.80000  0.00000  1.44662  390.79234  0.00000  101345.90314  244.05012  1.24783
4.84000  0.00000  1.44653  390.77060  0.00000  101344.79224  244.06261  1.24773
4.88000  0.00000  1.44644  390.74783  0.00000  101343.65693  244.07551  1.24763
4.92000  0.00000  1.44634  390.72412  0.00000  101342.49072  244.08879  1.24752
4.96000  0.00000  1.44624  390.69952  0.00000  101341.28760  244.10244  1.24740
5.00000  0.00000  1.44614  390.67412  0.00000  101340.04219  244.11643  1.24729
5.04000  0.00000  1.44604  390.64800  0.00000  101338.74977  244.13074  1.24717
5.08000  0.00000  1.44593  390.62127  0.00000  101337.40638  244.14534  1.24704
5.12000  0.00000  1.44583  390.59404  0.00000  101336.00873  244.16019  1.24692
5.16000  0.00000  1.44572  390.56641  0.00000  101334.55422  244.17525  1.24679
5.20000  0.00000  1.44561  390.53852  0.00000  101333.04085  244.19049  1.24666
5.24000  0.00000  1.44549  390.51050  0.00000  101331.46721  244.20585  1.24653
5.28000  0.00000  1.44538  390.48249  0.00000  101329.83234  244.22129  1.24641
5.32000  0.00000  1.44526  390.45464  0.00000  101328.13571  244.23675  1.24628
5.36000  0.00000  1.44514  390.42712  0.00000  101326.37716  244.25219  1.24615
5.40000  0.00000  1.44503  390.40009  0.00000  101324.55681  244.26754  1.24602
5.44000  0.00000  1.44491  390.37372  0.00000  101322.67502  244.28273  1.24590
5.48000  0.00000  1.44479  390.34818  0.00000  101320.73237  244.29772  1.24578
5.52000  0.00000  1.44468  390.32367  0.00000  101318.72959  244.31242  1.24567
5.56000  0.00000  1.44457  390.30035  0.00000  101316.66754  244.32679  1.24556
5.60000  0.00000  1.44445  390.27841  0.00000  101314.54719  244.34074  1.24545
5.64000  0.00000  1.44434  390.25804  0.00000  101312.36960  244.35421  1.24535
5.68000  0.00000  1.44423  390.23941  0.00000  101310.13591  244.36714  1.24526
5.72000  0.00000  1.44413  390.22270  0.00000  101307.84731  244.37945  1.24517
5.76000  0.00000  1.44403  390.20807  0.00000  101305.50507  244.39109  1.24510
5.80000  0.00000  1.44393  390.19569  0.00000  101303.11048  244.40199  1.24503
5.84000  0.00000  1.44383  390.18571  0.00000  101300.66492  244.41210  1.24497
5.88000  0.00000  1.44374  390.17825  0.00000  101298.16976  244.42136  1.24492
5.92000  0.00000  1.44366  390.17345  0.00000  101295.62646  244.42971  1.24489
5.96000  0.00000  1.43047  393.77090  0.00000  99265.15412  241.73808  1.26334
6.00000  0.00000  1.53467  400.00000  0.00000  101325.00000  230.00000  1.31567
-1.20000  0.01000  1.07026  448.26555  0.00000  70662.44251  230.00000  1.47442
-1.18000  0.01000  1.03461  463.70821  -0.00000  63253.67903  212.97783  1.58499
-1.16000  0.01000  1.03461  463.70821  -0.00000  63253.67903  212.97783  1.58499
-1.14000  0.01000  1.03461  463.70821  -0.00000  63253.67903  212.97783  1.58499
-1.12000  0.01000  1.03461  463.70821  -0.00000  63253.67904  212.97783  1.58499
-1.10000  0.01000  1.03461  463.70821  -0.00000  63253.67904  212.97783  1.58499
-1.08000  0.01000  1.03461  463.70821  -0.00000  63253.67907  212.97783  1.58499
-1.06000  0.01000  1.03461  463.70821  -0.00000  63253.67920  212.97783  1.58499
-1.04000  0.01000  1.03461  463.70821  -0.00000  63253.67976  212.97784  1.58499
-1.02000  0.01000  1.03461  463.70821  -0.00000  63253.68181  212.97784  1.58499
-1.00000  0.01000  1.03473  463.69851  -0.00571  63258.27560  212.96956  1.58499
-0.93987  0.00997  1.03522  463.63927  -0.02457  63286.50855  212.96472  1.58481
-0.88621  0.00991  1.03646  463.45550  -0.06452  63374.30014  213.00439  1.58403
-0.83775  0.00982  1.03900  463.04657  -0.13749  63569.94203  213.13923  1.58213
-0.79357  0.00971  1.04354  462.28562  -0.25706  63934.63892  213.43040  1.57845
-0.75299  0.00959  1.05089  461.02319  -0.43600  64541.33913  213.94794  1.57224
-0.71545  0.00947  1.06198  459.09477  -0.68302  65472.09001  214.76694  1.56268
-0.68053  0.00934  1.07774  456.33471  -0.99841  66812.67430  215.96035  1.54898
-0.64789  0.00921  1.09898  452.59940  -1.36890  68642.91486  217.58749  1.53055
-0.61726  0.00909  1.12624  447.79958  -1.76405  71021.83612  219.67865  1.50710
-0.58839  0.00896  1.15957  441.93621  -2.13725  73969.18653  222.21933  1.47885
-0.56110  0.00884  1.19835  435.12760  -2.43434  77448.16705  225.14039  1.44659
-0.53522  0.00873  1.24130  427.61380  -2.60829  81356.64373  228.32058  1.41168
-0.51062  0.00862  1.28652  419.73041  -2.63412  85533.14079  231.60340  1.37580
-0.48717  0.00851  1.33186  411.85691  -2.51624  89778.78311  234.82380  1.34070
-0.46477  0.00841  1.37521  404.35535  -2.28489  93889.60843  237.83541  1.30792
-0.44333  0.00832  1.41483  397.51758  -1.98433  97689.37875  240.53042  1.27858
-0.42277  0.00823  1.44959  391.53344  -1.65944  101053.46662  242.84802  1.25330
-0.40303  0.00814  1.47897  386.48350  -1.34596  103918.64148  244.77234  1.23226
-0.38403  0.00806  1.50304  382.35286  -1.06659  106278.93878  246.32318  1.21524
-0.36573  0.00799  1.52226  379.05774  -0.83173  108171.87016  247.54361  1.20179
-0.34808  0.00792  1.53735  376.47584  -0.64274  109660.87130  248.48782  1.19134
-0.33103  0.00785  1.54908  374.47300  -0.49559  110819.13890  249.21141  1.18328
-0.31454  0.00779  1.55818  372.92199  -0.38378  111717.82972  249.76515  1.17707
-0.29858  0.00773  1.56529  371.71293  -0.30035  112419.26816  250.19183  1.17225
-0.28311  0.00767  1.57092  370.75702  -0.23887  112974.26862  250.52547  1.16846
-0.26811  0.00762  1.57548  369.98595  -0.19390  113422.13757  250.79192  1.16541
-0.25354  0.00757  1.57924  369.34918  -0.16108  113792.06197  251.01016  1.16290
-0.23938  0.00753  1.58243  368.81055  -0.13700  114104.99226  251.19368  1.16078
-0.22562  0.00749  1.58518  368.34489  -0.11910  114375.51526  251.35180  1.15895
-0.21222  0.00745  1.58760  367.93524  -0.10547  114613.48664  251.49079  1.15734
-0.19917  0.00741  1.58975  367.57049  -0.09472  114825.35381  251.61469  1.15591