Title="Mesh"
Variables="x","y"
Zone i=201, j=301, f=point
0	0
0.0163499	0
0.0326997	0
0.0490496	0
0.0653994	0
0.0817493	0
0.0980991	0
0.114449	0
0.130799	0
0.147149	0
0.163499	0
0.179848	0
0.196198	0
0.212548	0
0.228898	0
0.25	-1.11022e-16
0.259167	0.013403
0.268573	0.026639
0.278216	0.0397038
0.288093	0.0525931
0.298199	0.0653028
0.308532	0.0778286
0.319089	0.0901667
0.329866	0.102313
0.34086	0.114264
0.352066	0.126015
0.363482	0.137562
0.375104	0.148903
0.386928	0.160032
0.39895	0.170948
0.411167	0.181645
0.423573	0.192121
0.436166	0.202372
0.448942	0.212395
0.461895	0.222187
0.475023	0.231745
0.48832	0.241065
0.501782	0.250144
0.515406	0.25898
0.529186	0.267569
0.543119	0.275909
0.557199	0.283998
0.571422	0.291832
0.585784	0.299409
0.60028	0.306726
0.614905	0.313782
0.629655	0.320573
0.644524	0.327099
0.659508	0.333356
0.674602	0.339342
0.689802	0.345056
0.705101	0.350496
0.720496	0.35566
0.735982	0.360547
0.751552	0.365154
0.767203	0.369481
0.78293	0.373525
0.798726	0.377286
0.814588	0.380762
0.830509	0.383953
0.846486	0.386857
0.862511	0.389473
0.878582	0.391801
0.894691	0.393839
0.910835	0.395588
0.927008	0.397045
0.943204	0.398212
0.959418	0.399088
0.975646	0.399672
0.991881	0.399964
1.00812	0.399964
1.02435	0.399672
1.04058	0.399088
1.0568	0.398212
1.07299	0.397045
1.08916	0.395588
1.10531	0.393839
1.12142	0.391801
1.13749	0.389473
1.15351	0.386857
1.16949	0.383953
1.18541	0.380762
1.20127	0.377286
1.21707	0.373525
1.2328	0.369481
1.24845	0.365154
1.26402	0.360547
1.2795	0.35566
1.2949	0.350496
1.3102	0.345056
1.3254	0.339342
1.34049	0.333356
1.35548	0.327099
1.37035	0.320573
1.38509	0.313782
1.39972	0.306726
1.41422	0.299409
1.42858	0.291832
1.4428	0.283998
1.45688	0.275909
1.47081	0.267569
1.48459	0.25898
1.49822	0.250144
1.51168	0.241065
1.52498	0.231745
1.5381	0.222187
1.55106	0.212395
1.56383	0.202372
1.57643	0.192121
1.58883	0.181645
1.60105	0.170948
1.61307	0.160032
1.6249	0.148903
1.63652	0.137562
1.64793	0.126015
1.65914	0.114264
1.67013	0.102313
1.68091	0.0901667
1.69147	0.0778286
1.7018	0.0653028
1.71191	0.0525931
1.72178	0.0397038
1.73143	0.026639
1.74083	0.013403
1.75	0
1.76645	0
1.78289	0
1.79934	0
1.81579	0
1.83224	0
1.84868	0
1.86513	0
1.88158	0
1.89803	0
1.91447	0
1.93092	0
1.94737	0
1.96382	0
1.98026	0
1.99671	0
2.01316	0
2.02961	0
2.04605	0
2.0625	0
2.07895	0
2.09539	0
2.11184	0
2.12829	0
2.14474	0
2.16118	0
2.17763	0
2.19408	0
2.21053	0
2.22697	0
2.24342	0
2.25987	0
2.27632	0
2.29276	0
2.30921	0
2.32566	0
2.34211	0
2.35855	0
2.375	0
2.39145	0
2.40789	0
2.42434	0
2.44079	0
2.45724	0
2.47368	0
2.49013	0
2.50658	0
2.52303	0
2.53947	0
2.55592	0
2.57237	0
2.58882	0
2.60526	0
2.62171	0
2.63816	0
2.65461	0
2.67105	0
2.6875	0
2.70395	0
2.72039	0
2.73684	0
2.75329	0
2.76974	0
2.78618	0
2.80263	0
2.81908	0
2.83553	0
2.85197	0
2.86842	0
2.88487	0
2.90132	0
2.91776	0
2.93421	0
2.95066	0
2.96711	0
2.98355	0
3	0
0	0.0108696
0.0162287	0.0111721
0.032449	0.011495
0.0486586	0.011844
0.0648545	0.0122262
0.0810329	0.0126509
0.0971887	0.0131304
0.113315	0.0136815
0.129404	0.0143282
0.145442	0.0151056
0.16141	0.0160678
0.177283	0.0173025
0.19302	0.0189598
0.208557	0.021315
0.223783	0.0249057
0.238299	0.0308389
0.250551	0.0398288
0.262038	0.0500066
0.273148	0.0608513
0.284107	0.0720589
0.295044	0.0834449
0.306038	0.0948936
0.317136	0.106331
0.328367	0.117706
0.339747	0.128984
0.351289	0.14014
0.362999	0.151154
0.374881	0.162012
0.386937	0.1727
0.399166	0.183209
0.41157	0.19353
0.424146	0.203655
0.436892	0.213578
0.449807	0.223292
0.462886	0.232792
0.476129	0.242073
0.48953	0.25113
0.503088	0.259959
0.516797	0.268557
0.530655	0.276919
0.544656	0.285041
0.558798	0.292921
0.573076	0.300554
0.587486	0.307939
0.602023	0.315072
0.616683	0.321951
0.631462	0.328573
0.646354	0.334935
0.661356	0.341035
0.676461	0.346871
0.691667	0.352441
0.706968	0.357743
0.722359	0.362776
0.737835	0.367536
0.753391	0.372023
0.769023	0.376236
0.784726	0.380172
0.800494	0.383831
0.816323	0.387212
0.832208	0.390312
0.848143	0.393133
0.864124	0.395671
0.880145	0.397927
0.896202	0.399901
0.912289	0.401591
0.928402	0.402996
0.944535	0.404118
0.960684	0.404955
0.976843	0.405507
0.993007	0.405774
1.00917	0.405756
1.02533	0.405454
1.04148	0.404867
1.05762	0.403995
1.07373	0.40284
1.08982	0.401402
1.10588	0.399681
1.12191	0.397678
1.13789	0.395393
1.15384	0.392828
1.16973	0.389984
1.18557	0.386861
1.20135	0.383462
1.21706	0.379786
1.23271	0.375836
1.24828	0.371612
1.26378	0.367117
1.27919	0.362352
1.29451	0.357318
1.30974	0.352019
1.32488	0.346455
1.33992	0.340628
1.35484	0.334542
1.36966	0.328197
1.38437	0.321597
1.39895	0.314744
1.41342	0.30764
1.42775	0.300289
1.44196	0.292693
1.45603	0.284856
1.46996	0.27678
1.48375	0.268469
1.49739	0.259926
1.51088	0.251156
1.52422	0.242163
1.5374	0.23295
1.55043	0.223523
1.56329	0.213887
1.57598	0.204047
1.58851	0.19401
1.60087	0.183783
1.61306	0.173373
1.62509	0.16279
1.63694	0.152044
1.64863	0.14115
1.66015	0.130123
1.67152	0.118984
1.68274	0.107763
1.69383	0.0964961
1.70482	0.0852399
1.71575	0.0740746
1.72668	0.0631217
1.73771	0.0525649
1.74901	0.0426839
1.76082	0.033907
1.77408	0.0278856
1.78847	0.0239945
1.80353	0.0213641
1.81899	0.0195018
1.83471	0.0181248
1.85059	0.0170671
1.86659	0.0162287
1.88266	0.0155466
1.89879	0.0149798
1.91497	0.0145004
1.93118	0.014089
1.94741	0.0137315
1.96367	0.0134174
1.97994	0.0131389
1.99622	0.0128899
2.01252	0.0126657
2.02883	0.0124625
2.04514	0.0122772
2.06147	0.0121074
2.0778	0.0119509
2.09413	0.0118062
2.11047	0.0116718
2.12681	0.0115464
2.14316	0.0114291
2.15951	0.011319
2.17586	0.0112153
2.19222	0.0111175
2.20858	0.0110249
2.22494	0.0109371
2.2413	0.0108536
2.25767	0.0107741
2.27404	0.0106983
2.29041	0.010626
2.30678	0.0105568
2.32316	0.0104906
2.33954	0.0104271
2.35592	0.0103664
2.3723	0.0103082
2.38869	0.0102525
2.40508	0.0101991
2.42147	0.0101481
2.43786	0.0100993
2.45426	0.0100529
2.47066	0.0100087
2.48707	0.00996691
2.50348	0.00992745
2.51989	0.00989042
2.53631	0.00985591
2.55274	0.00982403
2.56917	0.00979489
2.5856	0.00976866
2.60204	0.00974549
2.61849	0.00972557
2.63495	0.00970914
2.65141	0.00969643
2.66788	0.00968771
2.68436	0.00968328
2.70085	0.00968346
2.71735	0.0096886
2.73386	0.00969908
2.75038	0.0097153
2.76691	0.00973768
2.78346	0.00976666
2.80002	0.00980268
2.8166	0.00984617
2.83319	0.00989755
2.84979	0.0099572
2.86642	0.0100254
2.88306	0.0101024
2.89972	0.0101883
2.91639	0.010283
2.93309	0.0103862
2.9498	0.0104974
2.96652	0.0106158
2.98325	0.0107403
3	0.0108696
0	0.0217391
0.01611	0.0223381
0.0322039	0.0229765
0.0482772	0.023665
0.0643242	0.0244169
0.080338	0.0252491
0.0963095	0.0261839
0.112227	0.0272511
0.128074	0.0284913
0.14383	0.029962
0.159464	0.0317464
0.174934	0.0339673
0.190174	0.0368085
0.205085	0.0405419
0.219499	0.0455359
0.23315	0.0521438
0.245833	0.0603115
0.257925	0.0694877
0.269656	0.0793362
0.281193	0.0896183
0.292649	0.100167
0.304102	0.110865
0.315605	0.121628
0.327193	0.132396
0.338892	0.143125
0.350717	0.15378
0.362681	0.164335
0.374792	0.174769
0.387054	0.185063
0.399472	0.195205
0.412046	0.205182
0.424778	0.214984
0.437666	0.224602
0.45071	0.234027
0.463908	0.243253
0.477259	0.252273
0.490759	0.261082
0.504406	0.269673
0.518196	0.278043
0.532127	0.286187
0.546194	0.294101
0.560395	0.30178
0.574725	0.309221
0.58918	0.31642
0.603756	0.323376
0.618449	0.330083
0.633255	0.33654
0.648168	0.342744
0.663186	0.348692
0.678302	0.354382
0.693513	0.359813
0.708814	0.364981
0.7242	0.369885
0.739666	0.374523
0.755208	0.378894
0.770821	0.382996
0.7865	0.386828
0.80224	0.390388
0.818036	0.393675
0.833884	0.396688
0.849778	0.399427
0.865715	0.401891
0.881688	0.404078
0.897693	0.405988
0.913725	0.407621
0.929779	0.408977
0.945851	0.410055
0.961935	0.410854
0.978027	0.411376
0.994122	0.411619
1.01021	0.411585
1.0263	0.411273
1.04238	0.410683
1.05843	0.409816
1.07447	0.408673
1.09048	0.407254
1.10646	0.405559
1.12241	0.403591
1.13831	0.401348
1.15417	0.398834
1.16998	0.396047
1.18574	0.392991
1.20144	0.389665
1.21708	0.386072
1.23265	0.382213
1.24814	0.378089
1.26357	0.373702
1.27891	0.369054
1.29416	0.364146
1.30933	0.358982
1.32441	0.353562
1.33938	0.34789
1.35426	0.341966
1.36903	0.335795
1.38369	0.329378
1.39824	0.322719
1.41267	0.31582
1.42698	0.308684
1.44116	0.301315
1.45522	0.293716
1.46915	0.28589
1.48294	0.277843
1.4966	0.269577
1.51012	0.261098
1.52349	0.252411
1.53672	0.24352
1.54981	0.234432
1.56274	0.225154
1.57553	0.215692
1.58816	0.206055
1.60065	0.196252
1.61299	0.186294
1.62518	0.176193
1.63723	0.165965
1.64914	0.155626
1.66091	0.1452
1.67257	0.134715
1.68413	0.124205
1.6956	0.113717
1.70703	0.103314
1.71845	0.0930796
1.72993	0.0831275
1.74155	0.0736137
1.75344	0.0647478
1.76575	0.0568047
1.77876	0.0502326
1.79252	0.0450954
1.80689	0.0411474
1.82173	0.0380979
1.8369	0.0357067
1.85233	0.0337965
1.86793	0.0322414
1.88367	0.0309527
1.89952	0.0298678
1.91544	0.0289415
1.93142	0.0281409
1.94745	0.0274413
1.96352	0.0268242
1.97962	0.0262752
1.99574	0.0257831
2.01189	0.025339
2.02806	0.0249358
2.04425	0.0245676
2.06045	0.0242297
2.07666	0.0239182
2.09288	0.0236297
2.10911	0.0233615
2.12535	0.0231114
2.1416	0.0228771
2.15785	0.0226572
2.17411	0.02245
2.19037	0.0222544
2.20665	0.0220693
2.22292	0.0218936
2.2392	0.0217266
2.25549	0.0215676
2.27178	0.0214159
2.28807	0.0212709
2.30437	0.0211324
2.32068	0.0209997
2.33699	0.0208726
2.3533	0.0207509
2.36962	0.0206341
2.38594	0.0205223
2.40227	0.0204152
2.41861	0.0203127
2.43495	0.0202147
2.4513	0.0201213
2.46766	0.0200324
2.48402	0.0199481
2.50039	0.0198684
2.51677	0.0197936
2.53316	0.0197237
2.54956	0.0196589
2.56597	0.0195996
2.58239	0.0195459
2.59882	0.0194983
2.61527	0.0194571
2.63173	0.0194228
2.6482	0.0193957
2.66469	0.0193766
2.6812	0.0193659
2.69773	0.0193643
2.71427	0.0193726
2.73084	0.0193915
2.74743	0.0194218
2.76405	0.0194644
2.78069	0.0195203
2.79736	0.0195903
2.81407	0.0196754
2.8308	0.0197766
2.84756	0.0198946
2.86436	0.0200302
2.8812	0.020184
2.89807	0.0203562
2.91498	0.0205468
2.93192	0.0207553
2.9489	0.0209807
2.96591	0.0212214
2.98294	0.0214751
3	0.0217391
0	0.0326087
0.0159943	0.0334969
0.0319655	0.0344418
0.0479072	0.0354584
0.0638115	0.036565
0.079669	0.0377846
0.0954673	0.0391468
0.111191	0.0406899
0.12682	0.0424649
0.142327	0.0445398
0.157676	0.0470068
0.172818	0.0499898
0.187688	0.0536509
0.202193	0.0581861
0.216219	0.0637892
0.22966	0.070559
0.242508	0.0783925
0.254914	0.0870383
0.267021	0.09628
0.278943	0.105942
0.290772	0.115889
0.302573	0.126017
0.314397	0.136247
0.32628	0.146519
0.338246	0.156785
0.350316	0.167009
0.362504	0.177161
0.374819	0.187217
0.387268	0.197157
0.399856	0.206965
0.412588	0.216626
0.425463	0.226128
0.438483	0.235461
0.451649	0.244615
0.464958	0.253583
0.47841	0.262356
0.492003	0.270928
0.505734	0.279293
0.519602	0.287446
0.533602	0.295381
0.547732	0.303093
0.561988	0.310579
0.576367	0.317835
0.590865	0.324856
0.605479	0.331638
0.620203	0.33818
0.635034	0.344478
0.649967	0.350528
0.664999	0.356329
0.680125	0.361878
0.69534	0.367172
0.71064	0.372211
0.72602	0.37699
0.741476	0.38151
0.757003	0.385768
0.772596	0.389762
0.788251	0.393492
0.803963	0.396956
0.819727	0.400152
0.835538	0.403081
0.851393	0.405741
0.867285	0.408132
0.883211	0.410252
0.899165	0.412102
0.915143	0.41368
0.93114	0.414988
0.947152	0.416023
0.963173	0.416787
0.9792	0.417279
0.995227	0.4175
1.01125	0.41745
1.02726	0.417128
1.04327	0.416536
1.05925	0.415674
1.07521	0.414543
1.09114	0.413143
1.10705	0.411475
1.12291	0.40954
1.13874	0.407339
1.15452	0.404873
1.17025	0.402143
1.18593	0.39915
1.20156	0.395897
1.21712	0.392384
1.23261	0.388612
1.24804	0.384585
1.26339	0.380302
1.27866	0.375767
1.29385	0.370982
1.30896	0.365947
1.32397	0.360667
1.33889	0.355142
1.35371	0.349376
1.36844	0.343371
1.38306	0.33713
1.39757	0.330656
1.41196	0.323952
1.42625	0.317022
1.44041	0.309869
1.45446	0.302497
1.46838	0.29491
1.48218	0.287112
1.49585	0.279108
1.50939	0.270904
1.52279	0.262504
1.53606	0.253915
1.5492	0.245144
1.5622	0.236198
1.57507	0.227086
1.5878	0.217816
1.60039	0.2084
1.61285	0.19885
1.62519	0.189181
1.6374	0.179409
1.6495	0.169555
1.66149	0.159643
1.67338	0.149703
1.6852	0.139772
1.69697	0.129897
1.70872	0.120138
1.72048	0.110569
1.73232	0.101289
1.74429	0.0924175
1.7565	0.0841057
1.76905	0.0765288
1.78204	0.0698864
1.79556	0.0642724
1.80957	0.0596337
1.82401	0.0558334
1.8388	0.0527162
1.85387	0.050141
1.86915	0.047992
1.8846	0.0461785
1.90018	0.0446309
1.91586	0.0432961
1.93163	0.0421333
1.94746	0.0411112
1.96336	0.0402052
1.97929	0.0393963
1.99527	0.0386689
2.01127	0.0380109
2.02731	0.0374122
2.04336	0.0368646
2.05944	0.0363613
2.07554	0.0358968
2.09165	0.0354662
2.10777	0.0350656
2.12391	0.0346915
2.14005	0.0343412
2.15621	0.0340119
2.17238	0.0337017
2.18855	0.0334087
2.20473	0.0331312
2.22092	0.0328679
2.23712	0.0326174
2.25333	0.0323789
2.26954	0.0321512
2.28576	0.0319337
2.30198	0.0317256
2.31822	0.0315264
2.33446	0.0313355
2.3507	0.0311524
2.36696	0.0309769
2.38322	0.0308087
2.39949	0.0306475
2.41577	0.0304931
2.43206	0.0303454
2.44836	0.0302045
2.46466	0.0300703
2.48098	0.0299428
2.49732	0.0298223
2.51366	0.0297088
2.53002	0.0296026
2.54639	0.029504
2.56277	0.0294134
2.57918	0.0293311
2.5956	0.0292578
2.61204	0.0291939
2.6285	0.02914
2.64498	0.029097
2.66149	0.0290657
2.67802	0.0290468
2.69458	0.0290415
2.71117	0.0290508
2.7278	0.0290758
2.74445	0.0291179
2.76115	0.0291785
2.77788	0.0292589
2.79466	0.0293607
2.81148	0.0294853
2.82836	0.0296344
2.84528	0.0298093
2.86225	0.0300113
2.87928	0.0302414
2.89637	0.0305003
2.91351	0.0307881
2.93071	0.0311042
2.94797	0.0314472
2.96527	0.0318148
2.98262	0.0322034
3	0.0326087
0	0.0434783
0.0158821	0.0446473
0.0317349	0.0458886
0.0475504	0.0472203
0.063319	0.0486648
0.0790293	0.0502496
0.0946667	0.0520088
0.110213	0.0539859
0.125647	0.0562359
0.140938	0.0588291
0.15605	0.0618541
0.170936	0.0654197
0.185539	0.0696511
0.199792	0.0746754
0.213628	0.0805875
0.227013	0.0874035
0.23997	0.0950369
0.252587	0.103338
0.264956	0.112158
0.277164	0.121365
0.28928	0.13085
0.30136	0.140524
0.313449	0.150315
0.32558	0.160168
0.337778	0.170036
0.350062	0.179883
0.362448	0.189676
0.374947	0.199392
0.387566	0.20901
0.400311	0.218511
0.413187	0.227879
0.426196	0.237103
0.43934	0.246169
0.452619	0.255068
0.466033	0.263791
0.479581	0.27233
0.493261	0.280677
0.507073	0.288826
0.521013	0.29677
0.535079	0.304505
0.549269	0.312024
0.563578	0.319324
0.578004	0.3264
0.592542	0.333248
0.60719	0.339864
0.621944	0.346245
0.636799	0.352388
0.651751	0.35829
0.666796	0.363948
0.68193	0.36936
0.697148	0.374522
0.712446	0.379434
0.72782	0.384093
0.743265	0.388497
0.758777	0.392645
0.77435	0.396535
0.789981	0.400166
0.805665	0.403536
0.821396	0.406645
0.837172	0.409492
0.852987	0.412076
0.868836	0.414396
0.884714	0.416451
0.900619	0.418242
0.916544	0.419768
0.932485	0.421028
0.948438	0.422023
0.964398	0.422753
0.980361	0.423217
0.996322	0.423416
1.01228	0.423351
1.02822	0.423021
1.04415	0.422427
1.06006	0.42157
1.07595	0.42045
1.09181	0.419069
1.10764	0.417427
1.12343	0.415525
1.13918	0.413364
1.15488	0.410945
1.17054	0.40827
1.18614	0.40534
1.20169	0.402157
1.21718	0.398721
1.2326	0.395035
1.24796	0.391101
1.26324	0.38692
1.27845	0.382494
1.29357	0.377826
1.30862	0.372917
1.32357	0.36777
1.33844	0.362388
1.35321	0.356773
1.36789	0.350928
1.38247	0.344856
1.39694	0.33856
1.41131	0.332043
1.42556	0.325309
1.43971	0.318363
1.45374	0.311207
1.46766	0.303846
1.48146	0.296286
1.49513	0.28853
1.50869	0.280585
1.52212	0.272457
1.53543	0.264152
1.54861	0.255677
1.56167	0.247042
1.5746	0.238254
1.58741	0.229324
1.6001	0.220264
1.61268	0.211086
1.62514	0.201807
1.63749	0.192444
1.64975	0.183018
1.66191	0.173554
1.674	0.164083
1.68604	0.15464
1.69803	0.145269
1.71003	0.136026
1.72205	0.126975
1.73414	0.118197
1.74637	0.109787
1.75879	0.101857
1.77147	0.094527
1.7845	0.0879162
1.79792	0.0821001
1.81173	0.0770818
1.82592	0.0728027
1.84043	0.0691708
1.85521	0.0660863
1.87022	0.0634553
1.88542	0.0611969
1.90077	0.0592439
1.91624	0.0575418
1.93181	0.0560471
1.94746	0.0547247
1.96318	0.0535466
1.97896	0.0524902
1.99479	0.0515372
2.01065	0.0506726
2.02655	0.0498841
2.04249	0.0491616
2.05844	0.0484965
2.07442	0.0478818
2.09042	0.0473113
2.10644	0.04678
2.12248	0.0462836
2.13853	0.0458181
2.15459	0.0453806
2.17066	0.044968
2.18675	0.0445781
2.20284	0.0442088
2.21895	0.0438581
2.23506	0.0435244
2.25119	0.0432065
2.26732	0.042903
2.28346	0.042613
2.29962	0.0423354
2.31578	0.0420695
2.33195	0.0418146
2.34813	0.0415702
2.36431	0.0413357
2.38051	0.0411108
2.39672	0.0408951
2.41295	0.0406885
2.42918	0.0404908
2.44543	0.0403018
2.46169	0.0401217
2.47796	0.0399505
2.49425	0.0397883
2.51055	0.0396354
2.52688	0.039492
2.54322	0.0393586
2.55958	0.0392356
2.57596	0.0391236
2.59237	0.0390232
2.6088	0.0389351
2.62526	0.0388603
2.64175	0.0387996
2.65827	0.0387542
2.67482	0.0387252
2.69141	0.0387139
2.70804	0.038722
2.72472	0.0387508
2.74144	0.0388023
2.75821	0.0388782
2.77503	0.0389807
2.79191	0.0391117
2.80885	0.0392735
2.82585	0.0394684
2.84293	0.0396983
2.86008	0.0399654
2.8773	0.0402712
2.89461	0.040617
2.91199	0.0410033
2.92945	0.0414295
2.94699	0.041894
2.9646	0.0423938
2.98228	0.042924
3	0.0434783
0	0.0543478
0.0157739	0.0557885
0.0315131	0.0573148
0.0472083	0.0589476
0.0628489	0.060712
0.0784217	0.0626383
0.0939113	0.0647633
0.109298	0.0671323
0.12456	0.0698002
0.139667	0.072834
0.154585	0.0763123
0.169274	0.080324
0.183689	0.08496
0.197784	0.090299
0.211526	0.0963847
0.224907	0.103205
0.237956	0.110691
0.250734	0.118739
0.263307	0.12724
0.27574	0.136091
0.288089	0.145204
0.3004	0.154503
0.312714	0.163924
0.325059	0.173416
0.337459	0.182936
0.349935	0.192446
0.362499	0.201918
0.375165	0.211325
0.387939	0.220647
0.400829	0.229864
0.413839	0.238961
0.426973	0.247923
0.440232	0.256739
0.453618	0.265397
0.46713	0.273888
0.480769	0.282204
0.494533	0.290336
0.50842	0.298277
0.52243	0.306022
0.536559	0.313564
0.550804	0.320897
0.565163	0.328017
0.579633	0.33492
0.594211	0.341601
0.608892	0.348056
0.623673	0.354282
0.63855	0.360275
0.653519	0.366032
0.668576	0.371551
0.683717	0.376829
0.698937	0.381864
0.714233	0.386653
0.7296	0.391194
0.745034	0.395486
0.76053	0.399527
0.776083	0.403316
0.79169	0.40685
0.807345	0.41013
0.823045	0.413154
0.838785	0.415921
0.854561	0.418431
0.870367	0.420683
0.8862	0.422675
0.902055	0.424409
0.917928	0.425884
0.933814	0.427099
0.94971	0.428055
0.96561	0.428751
0.981511	0.429189
0.997408	0.429367
1.0133	0.429287
1.02917	0.42895
1.04503	0.428354
1.06087	0.427503
1.07669	0.426395
1.09248	0.425032
1.10823	0.423415
1.12395	0.421546
1.13962	0.419424
1.15526	0.417052
1.17084	0.41443
1.18637	0.411561
1.20185	0.408445
1.21726	0.405085
1.23262	0.401482
1.2479	0.397638
1.26312	0.393554
1.27826	0.389234
1.29333	0.384679
1.30831	0.379892
1.32321	0.374874
1.33803	0.369629
1.35275	0.364159
1.36738	0.358468
1.38192	0.352558
1.39635	0.346433
1.41069	0.340095
1.42492	0.33355
1.43905	0.326801
1.45307	0.319852
1.46697	0.312707
1.48077	0.305372
1.49445	0.297852
1.50802	0.290154
1.52148	0.282282
1.53482	0.274245
1.54804	0.266049
1.56115	0.257704
1.57414	0.249219
1.58702	0.240605
1.5998	0.231873
1.61247	0.223038
1.62503	0.214114
1.63751	0.205121
1.6499	0.19608
1.66221	0.187014
1.67447	0.177953
1.68668	0.168932
1.69886	0.15999
1.71105	0.151177
1.72327	0.142549
1.73557	0.134174
1.74798	0.126127
1.76055	0.118495
1.77334	0.111366
1.78641	0.104823
1.79978	0.0989257
1.81347	0.0936936
1.82749	0.0891053
1.8418	0.0851094
1.85637	0.0816384
1.87116	0.0786216
1.88614	0.0759917
1.90129	0.0736886
1.91656	0.0716612
1.93195	0.0698661
1.94743	0.0682674
1.96299	0.0668355
1.97862	0.0655459
1.9943	0.0643783
2.01003	0.0633158
2.02581	0.0623444
2.04161	0.0614524
2.05745	0.0606298
2.07332	0.0598683
2.08922	0.0591607
2.10513	0.058501
2.12106	0.057884
2.13701	0.0573051
2.15298	0.0567603
2.16896	0.0562465
2.18496	0.0557605
2.20097	0.0552999
2.21699	0.0548624
2.23302	0.054446
2.24907	0.054049
2.26512	0.0536699
2.28119	0.0533075
2.29727	0.0529605
2.31335	0.052628
2.32945	0.0523091
2.34557	0.0520032
2.36169	0.0517095
2.37783	0.0514277
2.39398	0.0511574
2.41014	0.0508982
2.42632	0.05065
2.44251	0.0504126
2.45872	0.0501861
2.47495	0.0499705
2.49119	0.049766
2.50746	0.0495729
2.52374	0.0493915
2.54005	0.0492222
2.55639	0.0490658
2.57275	0.0489228
2.58914	0.048794
2.60556	0.0486803
2.62201	0.0485828
2.6385	0.0485027
2.65503	0.0484413
2.6716	0.0484001
2.68822	0.0483808
2.70488	0.0483852
2.7216	0.0484153
2.73838	0.0484735
2.75521	0.0485622
2.77212	0.0486839
2.7891	0.0488414
2.80615	0.0490377
2.82329	0.0492759
2.84051	0.0495587
2.85783	0.0498892
2.87525	0.0502699
2.89277	0.0507026
2.9104	0.0511885
2.92813	0.0517275
2.94597	0.0523178
2.9639	0.0529558
2.98191	0.0536353
3	0.0543478
0	0.0652174
0.01567	0.0669197
0.0313008	0.0687189
0.0468822	0.0706378
0.0624026	0.0727033
0.0778483	0.0749471
0.0932031	0.0774068
0.108448	0.0801271
0.123559	0.0831604
0.138511	0.086567
0.153273	0.0904135
0.167812	0.0947695
0.182094	0.099699
0.196092	0.105249
0.20979	0.111438
0.223191	0.118243
0.236325	0.125608
0.249236	0.133455
0.261976	0.141699
0.274595	0.150259
0.287139	0.159062
0.299649	0.168042
0.312156	0.177143
0.32469	0.186319
0.337271	0.195528
0.349917	0.204737
0.362644	0.213917
0.375462	0.223041
0.388379	0.232089
0.401403	0.241043
0.414539	0.249885
0.427789	0.258602
0.441156	0.267181
0.454642	0.275611
0.468248	0.283882
0.481972	0.291984
0.495815	0.299911
0.509775	0.307654
0.52385	0.315206
0.538039	0.322562
0.552338	0.329716
0.566745	0.336663
0.581257	0.343398
0.59587	0.349917
0.610582	0.356216
0.625389	0.362291
0.640287	0.368138
0.655272	0.373756
0.67034	0.37914
0.685487	0.384288
0.700709	0.389198
0.716002	0.393868
0.731361	0.398295
0.746783	0.402478
0.762262	0.406415
0.777796	0.410105
0.793378	0.413547
0.809006	0.416738
0.824674	0.41968
0.840379	0.42237
0.856115	0.424807
0.87188	0.426992
0.887668	0.428925
0.903475	0.430603
0.919297	0.432028
0.935129	0.4332
0.950968	0.434118
0.96681	0.434783
0.98265	0.435194
0.998484	0.435353
1.01431	0.43526
1.03012	0.434915
1.04591	0.434319
1.06168	0.433472
1.07743	0.432376
1.09315	0.431032
1.10883	0.42944
1.12447	0.427602
1.14008	0.425519
1.15564	0.423192
1.17115	0.420622
1.18662	0.417812
1.20202	0.414762
1.21737	0.411475
1.23266	0.407952
1.24788	0.404195
1.26303	0.400207
1.27811	0.395989
1.29311	0.391543
1.30804	0.386873
1.32289	0.38198
1.33765	0.376867
1.35233	0.371538
1.36692	0.365994
1.38141	0.36024
1.39581	0.354279
1.41012	0.348114
1.42432	0.341749
1.43843	0.335189
1.45243	0.328437
1.46633	0.321499
1.48012	0.314379
1.49381	0.307084
1.50739	0.299619
1.52086	0.29199
1.53423	0.284206
1.54748	0.276274
1.56064	0.268202
1.57368	0.260001
1.58663	0.251681
1.59947	0.243254
1.61223	0.234735
1.62489	0.226139
1.63747	0.217484
1.64997	0.208791
1.66242	0.200083
1.67481	0.191388
1.68716	0.182737
1.69951	0.174169
1.71185	0.165726
1.72424	0.157458
1.73669	0.149421
1.74924	0.141677
1.76193	0.134296
1.77481	0.127344
1.78791	0.120886
1.80126	0.114969
1.81489	0.109619
1.82879	0.104831
1.84294	0.100577
1.85734	0.0968149
1.87196	0.0934921
1.88676	0.0905553
1.90172	0.0879538
1.91683	0.0856414
1.93205	0.0835775
1.94737	0.0817273
1.96278	0.0800611
1.97826	0.0785535
1.99381	0.0771833
2.00941	0.0759326
2.02506	0.074786
2.04075	0.0737306
2.05647	0.0727556
2.07223	0.0718514
2.08802	0.0710101
2.10383	0.0702248
2.11966	0.0694894
2.13552	0.0687988
2.15139	0.0681485
2.16728	0.0675345
2.18319	0.0669536
2.19911	0.0664026
2.21505	0.0658789
2.231	0.0653803
2.24696	0.0649048
2.26294	0.0644504
2.27893	0.0640159
2.29493	0.0635997
2.31095	0.0632006
2.32698	0.0628178
2.34302	0.0624504
2.35908	0.0620975
2.37515	0.0617587
2.39124	0.0614335
2.40735	0.0611214
2.42347	0.0608224
2.43961	0.0605361
2.45576	0.0602627
2.47194	0.0600021
2.48814	0.0597547
2.50437	0.0595206
2.52062	0.0593003
2.53689	0.0590943
2.5532	0.0589033
2.56953	0.0587281
2.5859	0.0585696
2.60231	0.0584288
2.61875	0.0583071
2.63524	0.0582057
2.65177	0.0581264
2.66836	0.0580709
2.68499	0.0580412
2.70169	0.0580395
2.71845	0.0580684
2.73527	0.0581305
2.75217	0.0582289
2.76916	0.0583669
2.78622	0.0585479
2.80339	0.0587758
2.82065	0.0590543
2.83802	0.0593876
2.85551	0.0597795
2.87312	0.0602336
2.89086	0.0607529
2.90874	0.0613395
2.92675	0.061994
2.94489	0.0627148
2.96315	0.0634978
2.98153	0.0643356
3	0.0652174
0	0.076087
0.0155708	0.0780403
0.0310987	0.0800997
0.046573	0.0822892
0.0619816	0.0846366
0.0773105	0.0871739
0.0925433	0.0899382
0.107662	0.0929721
0.122644	0.0963234
0.137466	0.100045
0.152103	0.104191
0.166529	0.108816
0.18072	0.113963
0.194659	0.119659
0.208341	0.125908
0.221776	0.132686
0.234988	0.139945
0.248015	0.147624
0.260898	0.155653
0.273677	0.163967
0.28639	0.172504
0.299072	0.181207
0.311751	0.190027
0.324452	0.198921
0.337195	0.207851
0.349997	0.216786
0.362872	0.225697
0.37583	0.23456
0.38888	0.243355
0.402029	0.252062
0.415281	0.260666
0.42864	0.269151
0.44211	0.277506
0.455691	0.285719
0.469384	0.29378
0.48319	0.301679
0.497108	0.309408
0.511136	0.31696
0.525274	0.324327
0.539519	0.331504
0.553869	0.338485
0.568321	0.345265
0.582873	0.351837
0.597521	0.3582
0.612263	0.364347
0.627094	0.370275
0.642011	0.375982
0.65701	0.381463
0.672088	0.386716
0.68724	0.391738
0.702463	0.396527
0.717752	0.401081
0.733103	0.405397
0.748512	0.409474
0.763976	0.41331
0.779489	0.416904
0.795047	0.420255
0.810647	0.423361
0.826284	0.426222
0.841953	0.428837
0.857652	0.431205
0.873375	0.433326
0.889118	0.435199
0.904878	0.436825
0.92065	0.438202
0.93643	0.439332
0.952214	0.440213
0.967999	0.440847
0.98378	0.441234
0.999553	0.441374
1.01531	0.441268
1.03106	0.440916
1.04679	0.440319
1.06249	0.439478
1.07817	0.438394
1.09382	0.437068
1.10943	0.435501
1.12501	0.433694
1.14055	0.431648
1.15604	0.429365
1.17148	0.426846
1.18688	0.424093
1.20221	0.421108
1.2175	0.417892
1.23272	0.414447
1.24787	0.410775
1.26296	0.406878
1.27798	0.402759
1.29293	0.398419
1.3078	0.393862
1.3226	0.389089
1.33731	0.384104
1.35194	0.37891
1.36649	0.373509
1.38094	0.367905
1.39531	0.362101
1.40958	0.356102
1.42376	0.34991
1.43784	0.343531
1.45183	0.336968
1.46572	0.330227
1.47951	0.323313
1.4932	0.316232
1.50679	0.308989
1.52027	0.301592
1.53366	0.294047
1.54695	0.286364
1.56014	0.27855
1.57323	0.270615
1.58623	0.262571
1.59914	0.25443
1.61197	0.246204
1.62471	0.237911
1.63738	0.229567
1.64999	0.221192
1.66254	0.212809
1.67505	0.204444
1.68753	0.196126
1.7	0.187889
1.71248	0.179772
1.72499	0.171817
1.73757	0.164073
1.75024	0.156593
1.76303	0.149431
1.77598	0.142643
1.78911	0.136279
1.80246	0.13038
1.81604	0.124969
1.82985	0.120054
1.8439	0.115619
1.85816	0.111638
1.87263	0.108075
1.88727	0.104887
1.90208	0.102033
1.91703	0.0994735
1.9321	0.0971716
1.94728	0.0950946
1.96254	0.0932138
1.97789	0.0915042
1.99331	0.0899443
2.00878	0.0885157
2.02431	0.0872023
2.03988	0.0859906
2.0555	0.0848687
2.07115	0.0838265
2.08683	0.0828553
2.10254	0.0819474
2.11827	0.0810963
2.13403	0.0802962
2.14981	0.0795422
2.16562	0.0788297
2.18143	0.078155
2.19727	0.0775147
2.21312	0.0769058
2.22899	0.0763258
2.24488	0.0757722
2.26078	0.0752432
2.27669	0.0747368
2.29262	0.0742517
2.30857	0.0737864
2.32453	0.0733398
2.3405	0.0729109
2.35649	0.0724988
2.3725	0.0721029
2.38852	0.0717226
2.40457	0.0713574
2.42063	0.0710072
2.43671	0.0706717
2.45282	0.0703509
2.46895	0.0700449
2.4851	0.0697538
2.50128	0.069478
2.51749	0.069218
2.53373	0.0689743
2.55	0.0687477
2.56631	0.0685391
2.58266	0.0683495
2.59905	0.0681802
2.61548	0.0680326
2.63196	0.0679082
2.64849	0.067809
2.66509	0.067737
2.68174	0.0676945
2.69846	0.0676842
2.71525	0.067709
2.73212	0.0677722
2.74908	0.0678773
2.76613	0.0680283
2.78329	0.0682295
2.80055	0.0684855
2.81794	0.0688013
2.83545	0.069182
2.85311	0.0696327
2.87091	0.0701585
2.88887	0.0707637
2.90699	0.0714518
2.92528	0.0722244
2.94374	0.0730807
2.96235	0.0740164
2.98112	0.075023
3	0.076087
0	0.0869565
0.0154764	0.0891497
0.0309072	0.0914562
0.0462814	0.0939006
0.0615865	0.0965107
0.0768088	0.0993182
0.0919324	0.102359
0.10694	0.105671
0.121812	0.109299
0.136527	0.113287
0.151065	0.117678
0.165407	0.122514
0.179535	0.127824
0.193441	0.133623
0.207125	0.139906
0.2206	0.14665
0.233888	0.153813
0.247019	0.161344
0.260027	0.169188
0.272946	0.177288
0.285808	0.185591
0.298643	0.194049
0.311475	0.202617
0.324328	0.211257
0.337218	0.219934
0.350163	0.228617
0.363174	0.237281
0.376262	0.245902
0.389435	0.25446
0.4027	0.262936
0.416062	0.271314
0.429524	0.279581
0.44309	0.287723
0.456761	0.295729
0.470538	0.303588
0.484421	0.311292
0.49841	0.318832
0.512503	0.3262
0.526701	0.33339
0.540999	0.340394
0.555398	0.347208
0.569893	0.353825
0.584483	0.360241
0.599164	0.366451
0.613933	0.372451
0.628787	0.378237
0.643722	0.383807
0.658734	0.389155
0.673821	0.394281
0.688977	0.399181
0.704199	0.403852
0.719484	0.408293
0.734827	0.412501
0.750223	0.416475
0.76567	0.420213
0.781163	0.423714
0.796697	0.426976
0.812269	0.43
0.827874	0.432783
0.84351	0.435325
0.85917	0.437625
0.874852	0.439683
0.890552	0.4415
0.906265	0.443073
0.921988	0.444405
0.937717	0.445493
0.953448	0.44634
0.969176	0.446945
0.984899	0.447308
1.00061	0.44743
1.01631	0.447312
1.032	0.446953
1.04766	0.446356
1.0633	0.445521
1.07891	0.444449
1.09449	0.443141
1.11004	0.441597
1.12555	0.439821
1.14102	0.437812
1.15645	0.435572
1.17182	0.433102
1.18715	0.430405
1.20242	0.427482
1.21764	0.424335
1.2328	0.420966
1.24789	0.417376
1.26292	0.413568
1.27789	0.409545
1.29278	0.405308
1.3076	0.40086
1.32234	0.396204
1.337	0.391342
1.35159	0.386278
1.36609	0.381014
1.38051	0.375555
1.39484	0.369903
1.40908	0.364063
1.42324	0.358037
1.4373	0.351832
1.45127	0.34545
1.46515	0.338898
1.47893	0.332181
1.49262	0.325304
1.50621	0.318273
1.51971	0.311095
1.53312	0.303778
1.54643	0.29633
1.55966	0.28876
1.57279	0.281077
1.58584	0.273292
1.5988	0.265418
1.61169	0.257467
1.6245	0.249456
1.63725	0.2414
1.64995	0.233319
1.66259	0.225233
1.6752	0.217169
1.68779	0.209152
1.70037	0.201213
1.71296	0.193387
1.72559	0.185712
1.73827	0.178229
1.75103	0.170983
1.7639	0.16402
1.7769	0.157385
1.79007	0.15112
1.80342	0.145261
1.81697	0.13983
1.83072	0.134836
1.84467	0.130276
1.85883	0.126133
1.87318	0.122381
1.88769	0.118989
1.90236	0.115924
1.91717	0.113152
1.9321	0.110641
1.94714	0.108361
1.96228	0.106286
1.9775	0.10439