Title="Mesh"
Variables="x","y"
Zone i=201, j=101, f=point
0	0
0.0163499	0
0.0326997	0
0.0490496	0
0.0653994	0
0.0817493	0
0.0980991	0
0.114449	0
0.130799	0
0.147149	0
0.163499	0
0.179848	0
0.196198	0
0.212548	0
0.228898	0
0.25	-1.11022e-16
0.259167	0.013403
0.268573	0.026639
0.278216	0.0397038
0.288093	0.0525931
0.298199	0.0653028
0.308532	0.0778286
0.319089	0.0901667
0.329866	0.102313
0.34086	0.114264
0.352066	0.126015
0.363482	0.137562
0.375104	0.148903
0.386928	0.160032
0.39895	0.170948
0.411167	0.181645
0.423573	0.192121
0.436166	0.202372
0.448942	0.212395
0.461895	0.222187
0.475023	0.231745
0.48832	0.241065
0.501782	0.250144
0.515406	0.25898
0.529186	0.267569
0.543119	0.275909
0.557199	0.283998
0.571422	0.291832
0.585784	0.299409
0.60028	0.306726
0.614905	0.313782
0.629655	0.320573
0.644524	0.327099
0.659508	0.333356
0.674602	0.339342
0.689802	0.345056
0.705101	0.350496
0.720496	0.35566
0.735982	0.360547
0.751552	0.365154
0.767203	0.369481
0.78293	0.373525
0.798726	0.377286
0.814588	0.380762
0.830509	0.383953
0.846486	0.386857
0.862511	0.389473
0.878582	0.391801
0.894691	0.393839
0.910835	0.395588
0.927008	0.397045
0.943204	0.398212
0.959418	0.399088
0.975646	0.399672
0.991881	0.399964
1.00812	0.399964
1.02435	0.399672
1.04058	0.399088
1.0568	0.398212
1.07299	0.397045
1.08916	0.395588
1.10531	0.393839
1.12142	0.391801
1.13749	0.389473
1.15351	0.386857
1.16949	0.383953
1.18541	0.380762
1.20127	0.377286
1.21707	0.373525
1.2328	0.369481
1.24845	0.365154
1.26402	0.360547
1.2795	0.35566
1.2949	0.350496
1.3102	0.345056
1.3254	0.339342
1.34049	0.333356
1.35548	0.327099
1.37035	0.320573
1.38509	0.313782
1.39972	0.306726
1.41422	0.299409
1.42858	0.291832
1.4428	0.283998
1.45688	0.275909
1.47081	0.267569
1.48459	0.25898
1.49822	0.250144
1.51168	0.241065
1.52498	0.231745
1.5381	0.222187
1.55106	0.212395
1.56383	0.202372
1.57643	0.192121
1.58883	0.181645
1.60105	0.170948
1.61307	0.160032
1.6249	0.148903
1.63652	0.137562
1.64793	0.126015
1.65914	0.114264
1.67013	0.102313
1.68091	0.0901667
1.69147	0.0778286
1.7018	0.0653028
1.71191	0.0525931
1.72178	0.0397038
1.73143	0.026639
1.74083	0.013403
1.75	0
1.76645	0
1.78289	0
1.79934	0
1.81579	0
1.83224	0
1.84868	0
1.86513	0
1.88158	0
1.89803	0
1.91447	0
1.93092	0
1.94737	0
1.96382	0
1.98026	0
1.99671	0
2.01316	0
2.02961	0
2.04605	0
2.0625	0
2.07895	0
2.09539	0
2.11184	0
2.12829	0
2.14474	0
2.16118	0
2.17763	0
2.19408	0
2.21053	0
2.22697	0
2.24342	0
2.25987	0
2.27632	0
2.29276	0
2.30921	0
2.32566	0
2.34211	0
2.35855	0
2.375	0
2.39145	0
2.40789	0
2.42434	0
2.44079	0
2.45724	0
2.47368	0
2.49013	0
2.50658	0
2.52303	0
2.53947	0
2.55592	0
2.57237	0
2.58882	0
2.60526	0
2.62171	0
2.63816	0
2.65461	0
2.67105	0
2.6875	0
2.70395	0
2.72039	0
2.73684	0
2.75329	0
2.76974	0
2.78618	0
2.80263	0
2.81908	0
2.83553	0
2.85197	0
2.86842	0
2.88487	0
2.90132	0
2.91776	0
2.93421	0
2.95066	0
2.96711	0
2.98355	0
3	0
0	0.0328947
0.0159849	0.0337802
0.0319468	0.0347213
0.0478795	0.0357326
0.0637758	0.0368318
0.0796264	0.038041
0.0954201	0.0393881
0.111142	0.040909
0.126775	0.0426506
0.142294	0.0446745
0.157667	0.047063
0.172853	0.0499265
0.187794	0.0534146
0.202415	0.0577309
0.216608	0.0631554
0.23007	0.07007
0.242592	0.0783543
0.254798	0.0872551
0.266796	0.0966153
0.278667	0.106311
0.290477	0.116244
0.302275	0.126333
0.314102	0.136515
0.325987	0.146735
0.337955	0.156952
0.350024	0.167129
0.362206	0.177238
0.374512	0.187255
0.386949	0.197158
0.399523	0.206932
0.412237	0.216562
0.425092	0.226036
0.438091	0.235342
0.451233	0.244471
0.464518	0.253414
0.477944	0.262165
0.49151	0.270717
0.505213	0.279063
0.519051	0.287197
0.533021	0.295116
0.54712	0.302813
0.561345	0.310285
0.575693	0.317528
0.59016	0.324538
0.604741	0.331312
0.619434	0.337845
0.634234	0.344136
0.649137	0.350181
0.664139	0.355979
0.679236	0.361525
0.694423	0.366818
0.709696	0.371857
0.72505	0.376638
0.740481	0.38116
0.755985	0.385422
0.771556	0.389421
0.787191	0.393157
0.802885	0.396628
0.818633	0.399833
0.83443	0.40277
0.850272	0.405439
0.866154	0.40784
0.882072	0.40997
0.898021	0.41183
0.913995	0.41342
0.929992	0.414738
0.946004	0.415784
0.96203	0.416559
0.978062	0.417061
0.994097	0.417292
1.01013	0.417251
1.02616	0.416939
1.04217	0.416355
1.05817	0.415501
1.07415	0.414376
1.09011	0.412982
1.10603	0.411318
1.12192	0.409387
1.13777	0.407188
1.15358	0.404723
1.16935	0.401993
1.18505	0.398999
1.20071	0.395743
1.2163	0.392225
1.23183	0.388448
1.24728	0.384413
1.26267	0.380122
1.27797	0.375577
1.29319	0.37078
1.30833	0.365733
1.32338	0.360438
1.33833	0.354898
1.35319	0.349115
1.36794	0.343092
1.38259	0.336832
1.39713	0.330338
1.41156	0.323613
1.42587	0.31666
1.44006	0.309484
1.45413	0.302088
1.46808	0.294476
1.4819	0.286652
1.49559	0.278622
1.50915	0.270391
1.52257	0.261965
1.53586	0.253349
1.54901	0.24455
1.56203	0.235577
1.57491	0.226437
1.58765	0.217141
1.60025	0.207699
1.61273	0.198124
1.62507	0.188431
1.63729	0.178637
1.6494	0.168763
1.66139	0.158833
1.67329	0.148875
1.68512	0.138925
1.69688	0.129025
1.70861	0.119223
1.72035	0.109582
1.73212	0.100173
1.74399	0.0910849
1.75601	0.0824227
1.76826	0.0743164
1.78116	0.0674819
1.79477	0.0620311
1.80892	0.0576425
1.82349	0.0540751
1.83839	0.0511459
1.85354	0.0487152
1.86889	0.0466763
1.88439	0.0449478
1.90001	0.0434671
1.91573	0.0421862
1.93153	0.041068
1.94739	0.0400835
1.9633	0.0392099
1.97926	0.0384291
1.99525	0.0377268
2.01128	0.0370912
2.02733	0.0365127
2.0434	0.0359837
2.05949	0.0354976
2.0756	0.0350489
2.09172	0.0346331
2.10786	0.0342464
2.124	0.0338855
2.14016	0.0335475
2.15633	0.03323
2.17251	0.032931
2.18869	0.0326486
2.20488	0.0323813
2.22108	0.0321277
2.23728	0.0318866
2.2535	0.0316569
2.26971	0.0314377
2.28594	0.0312283
2.30217	0.0310279
2.31841	0.030836
2.33465	0.030652
2.35091	0.0304754
2.36717	0.030306
2.38343	0.0301434
2.39971	0.0299873
2.41599	0.0298376
2.43228	0.0296942
2.44858	0.0295569
2.4649	0.0294257
2.48122	0.0293008
2.49755	0.0291821
2.5139	0.0290698
2.53026	0.0289641
2.54663	0.0288652
2.56302	0.0287735
2.57943	0.0286892
2.59585	0.0286129
2.61229	0.0285451
2.62876	0.0284862
2.64524	0.0284369
2.66175	0.028398
2.67828	0.0283702
2.69484	0.0283543
2.71144	0.0283514
2.72806	0.0283625
2.74472	0.0283887
2.76141	0.0284311
2.77814	0.028491
2.79491	0.0285696
2.81173	0.0286683
2.8286	0.0287883
2.84551	0.0289307
2.86248	0.0290965
2.87949	0.0292866
2.89656	0.0295012
2.91369	0.0297402
2.93086	0.030003
2.94808	0.0302881
2.96535	0.0305933
2.98266	0.0309152
3	0.03125
0	0.0657895
0.0156516	0.0674847
0.031264	0.0692747
0.0468276	0.0711817
0.0623313	0.0732315
0.0777622	0.0754546
0.0931049	0.0778873
0.108341	0.080572
0.12345	0.0835591
0.138405	0.0869073
0.153177	0.0906838
0.167733	0.0949627
0.182035	0.0998212
0.196042	0.10533
0.209721	0.111534
0.223056	0.118418
0.236094	0.125877
0.248925	0.133785
0.261603	0.142056
0.274176	0.150614
0.286686	0.159393
0.299168	0.168335
0.311651	0.177389
0.324161	0.186512
0.336718	0.195666
0.349338	0.204819
0.362036	0.213942
0.374822	0.223012
0.387705	0.232007
0.400691	0.24091
0.413785	0.249703
0.426991	0.258372
0.440313	0.266906
0.45375	0.275293
0.467304	0.283523
0.480976	0.291586
0.494764	0.299476
0.508667	0.307185
0.522685	0.314706
0.536815	0.322032
0.551054	0.329159
0.565402	0.336082
0.579853	0.342795
0.594407	0.349295
0.609059	0.355577
0.623807	0.361638
0.638646	0.367475
0.653574	0.373083
0.668586	0.378461
0.683679	0.383606
0.698849	0.388514
0.714092	0.393185
0.729404	0.397616
0.744781	0.401804
0.760218	0.405749
0.775713	0.409449
0.79126	0.412902
0.806855	0.416106
0.822495	0.419062
0.838175	0.421767
0.853891	0.424222
0.869638	0.426425
0.885413	0.428375
0.901212	0.430073
0.917029	0.431517
0.932862	0.432708
0.948705	0.433645
0.964556	0.434329
0.980408	0.434759
0.996259	0.434935
1.0121	0.434858
1.02794	0.434529
1.04376	0.433947
1.05957	0.433113
1.07535	0.432028
1.0911	0.430693
1.10683	0.429109
1.12252	0.427276
1.13817	0.425196
1.15378	0.42287
1.16935	0.420299
1.18487	0.417485
1.20033	0.414429
1.21574	0.411133
1.23108	0.407599
1.24636	0.403829
1.26158	0.399824
1.27672	0.395587
1.29179	0.39112
1.30677	0.386425
1.32168	0.381506
1.33651	0.376365
1.35124	0.371005
1.36589	0.365428
1.38044	0.359639
1.3949	0.353641
1.40926	0.347437
1.42352	0.341032
1.43768	0.334429
1.45173	0.327633
1.46567	0.32065
1.47951	0.313484
1.49324	0.306141
1.50686	0.298627
1.52037	0.290949
1.53377	0.283114
1.54706	0.275131
1.56024	0.267007
1.57331	0.258754
1.58628	0.250382
1.59915	0.241903
1.61192	0.233331
1.62459	0.224682
1.63719	0.215974
1.6497	0.207227
1.66215	0.198464
1.67454	0.189712
1.6869	0.181001
1.69923	0.172366
1.71156	0.163847
1.72392	0.15549
1.73633	0.147347
1.74883	0.139475
1.76145	0.13194
1.77425	0.124816
1.78728	0.118215
1.80061	0.112232
1.81425	0.106893
1.8282	0.102168
1.84242	0.0980051
1.85688	0.0943422
1.87156	0.0911168
1.88643	0.0882706
1.90145	0.0857508
1.9166	0.0835114
1.93187	0.0815127
1.94724	0.0797207
1.96269	0.0781066
1.97821	0.0766463
1.99379	0.0753191
2.00942	0.0741078
2.0251	0.0729976
2.04082	0.0719761
2.05657	0.0710326
2.07235	0.070158
2.08816	0.0693446
2.104	0.0685856
2.11985	0.0678752
2.13573	0.0672085
2.15162	0.0665809
2.16753	0.0659887
2.18345	0.0654286
2.19939	0.0648975
2.21535	0.064393
2.23131	0.0639128
2.24729	0.0634548
2.26328	0.0630174
2.27928	0.0625989
2.2953	0.0621981
2.31133	0.0618138
2.32737	0.0614449
2.34342	0.0610906
2.35949	0.0607501
2.37557	0.0604229
2.39167	0.0601084
2.40778	0.0598062
2.42391	0.059516
2.44005	0.0592377
2.45622	0.0589712
2.47241	0.0587164
2.48861	0.0584735
2.50484	0.0582428
2.5211	0.0580245
2.53738	0.0578192
2.55369	0.0576273
2.57003	0.0574495
2.58641	0.0572866
2.60282	0.0571396
2.61927	0.0570096
2.63576	0.0568977
2.6523	0.0568055
2.66888	0.0567343
2.68552	0.0566862
2.70222	0.0566629
2.71898	0.0566666
2.73581	0.0566998
2.75271	0.0567651
2.76969	0.0568652
2.78675	0.0570032
2.80391	0.0571823
2.82116	0.0574056
2.83852	0.0576765
2.85599	0.0579981
2.87358	0.0583731
2.89129	0.0588037
2.90912	0.059291
2.92708	0.059835
2.94515	0.0604335
2.96334	0.0610823
2.98163	0.0617744
3	0.0625
0	0.0986842
0.0153595	0.101093
0.0306711	0.103618
0.0459244	0.106282
0.0611077	0.109113
0.0762079	0.11214
0.0912108	0.115395
0.106101	0.118915
0.12086	0.122737
0.135472	0.1269
0.149917	0.131443
0.164179	0.136399
0.178243	0.141796
0.192101	0.147646
0.205754	0.153941
0.219215	0.16065
0.232514	0.167726
0.245681	0.175117
0.258747	0.182774
0.271741	0.19065
0.284689	0.1987
0.297616	0.206883
0.310542	0.215164
0.323487	0.223507
0.336465	0.231884
0.34949	0.240267
0.362575	0.248632
0.375728	0.256958
0.388957	0.265226
0.402268	0.273418
0.415667	0.281519
0.429158	0.289515
0.442742	0.297394
0.456424	0.305145
0.470202	0.312757
0.484079	0.320222
0.498054	0.327531
0.512127	0.334676
0.526296	0.341651
0.540561	0.348449
0.55492	0.355064
0.569369	0.361492
0.583909	0.367727
0.598535	0.373764
0.613245	0.379599
0.628036	0.385229
0.642906	0.390651
0.65785	0.39586
0.672867	0.400854
0.687951	0.40563
0.7031	0.410186
0.718311	0.414519
0.733579	0.418627
0.748902	0.422509
0.764274	0.426162
0.779694	0.429586
0.795156	0.432779
0.810658	0.435739
0.826195	0.438466
0.841764	0.440958
0.857361	0.443216
0.872982	0.445237
0.888624	0.447023
0.904282	0.448572
0.919954	0.449884
0.935635	0.450959
0.951321	0.451797
0.96701	0.452398
0.982696	0.452762
0.998377	0.452889
1.01405	0.452781
1.02971	0.452437
1.04535	0.451858
1.06098	0.451044
1.07658	0.449998
1.09215	0.448718
1.10769	0.447207
1.1232	0.445466
1.13867	0.443496
1.15411	0.441298
1.16949	0.438873
1.18484	0.436224
1.20013	0.433352
1.21536	0.430259
1.23054	0.426946
1.24566	0.423416
1.26072	0.419671
1.27572	0.415713
1.29064	0.411546
1.30549	0.40717
1.32027	0.40259
1.33498	0.397807
1.3496	0.392826
1.36415	0.38765
1.37861	0.382281
1.39299	0.376724
1.40728	0.370983
1.42149	0.365062
1.4356	0.358965
1.44963	0.352698
1.46356	0.346264
1.4774	0.339671
1.49115	0.332924
1.50481	0.326028
1.51837	0.318992
1.53184	0.311823
1.54523	0.304528
1.55852	0.297117
1.57173	0.2896
1.58486	0.281988
1.59791	0.274291
1.61088	0.266525
1.62378	0.258702
1.63662	0.250839
1.64941	0.242954
1.66215	0.235068
1.67485	0.227201
1.68753	0.219379
1.70021	0.211629
1.71289	0.203981
1.72559	0.196467
1.73834	0.189124
1.75116	0.18199
1.76407	0.175106
1.77709	0.168515
1.79026	0.16226
1.8036	0.156386
1.81713	0.150922
1.83085	0.145881
1.84478	0.141258
1.85889	0.137037
1.87318	0.133194
1.88764	0.129701
1.90224	0.126525
1.91699	0.123637
1.93185	0.121008
1.94681	0.118609
1.96188	0.116416
1.97702	0.114406
1.99224	0.112559
2.00753	0.110857
2.02287	0.109284
2.03826	0.107826
2.0537	0.106471
2.06917	0.105209
2.08469	0.104029
2.10023	0.102924
2.11581	0.101886
2.13141	0.100908
2.14704	0.0999858
2.16269	0.099113
2.17836	0.0982856
2.19405	0.0974996
2.20976	0.0967516
2.22549	0.0960383
2.24124	0.095357
2.257	0.0947054
2.27278	0.0940811
2.28858	0.0934824
2.3044	0.0929075
2.32023	0.0923549
2.33609	0.0918235
2.35196	0.091312
2.36785	0.0908196
2.38376	0.0903455
2.39969	0.0898891
2.41565	0.08945
2.43163	0.0890278
2.44764	0.0886223
2.46367	0.0882336
2.47974	0.0878617
2.49584	0.0875069
2.51197	0.0871697
2.52814	0.0868505
2.54435	0.0865501
2.5606	0.0862695
2.5769	0.0860097
2.59325	0.085772
2.60966	0.085558
2.62613	0.0853695
2.64266	0.0852084
2.65926	0.0850771
2.67594	0.0849782
2.6927	0.0849146
2.70955	0.0848897
2.7265	0.0849073
2.74356	0.0849716
2.76074	0.0850871
2.77804	0.0852591
2.79549	0.0854932
2.81309	0.0857956
2.83086	0.0861726
2.8488	0.0866313
2.86694	0.0871782
2.8853	0.0878199
2.90386	0.0885615
2.92266	0.0894067
2.94169	0.0903556
2.96094	0.091404
2.98038	0.0925414
3	0.09375
0	0.131579
0.0151134	0.134596
0.0301772	0.137735
0.0451815	0.141017
0.0601159	0.144466
0.0749695	0.148106
0.0897307	0.151963
0.104388	0.156063
0.118931	0.160429
0.133348	0.165084
0.147631	0.170048
0.161773	0.175333
0.175772	0.180944
0.18963	0.186878
0.203353	0.193122
0.216956	0.199653
0.230454	0.206442
0.243866	0.213458
0.257213	0.22067
0.270511	0.228045
0.28378	0.235552
0.297037	0.243162
0.310296	0.250846
0.323571	0.25858
0.336874	0.266338
0.350217	0.2741
0.363608	0.281845
0.377054	0.289554
0.390564	0.297212
0.404141	0.304802
0.417792	0.312311
0.431518	0.319726
0.445323	0.327036
0.45921	0.33423
0.473178	0.341298
0.487229	0.348232
0.501363	0.355023
0.51558	0.361664
0.529878	0.368148
0.544258	0.374469
0.558717	0.380621
0.573254	0.386598
0.587866	0.392397
0.602552	0.398012
0.617309	0.403439
0.632135	0.408674
0.647027	0.413715
0.661982	0.418557
0.676996	0.423198
0.692068	0.427635
0.707194	0.431866
0.722371	0.435888
0.737595	0.439699
0.752863	0.443298
0.768173	0.446683
0.78352	0.449852
0.798901	0.452805
0.814313	0.45554
0.829753	0.458056
0.845217	0.460352
0.860702	0.462428
0.876205	0.464284
0.891722	0.465918
0.907249	0.46733
0.922785	0.468521
0.938324	0.46949
0.953865	0.470237
0.969403	0.470763
0.984936	0.471068
1.00046	0.471152
1.01597	0.471015
1.03147	0.470659
1.04695	0.470084
1.06241	0.46929
1.07784	0.468279
1.09325	0.467052
1.10862	0.46561
1.12397	0.463954
1.13927	0.462086
1.15454	0.460006
1.16977	0.457716
1.18495	0.455219
1.20008	0.452515
1.21516	0.449608
1.23019	0.446498
1.24516	0.443188
1.26008	0.43968
1.27494	0.435977
1.28973	0.43208
1.30446	0.427994
1.31912	0.423721
1.33372	0.419263
1.34824	0.414624
1.36269	0.409808
1.37707	0.404817
1.39137	0.399657
1.40559	0.394329
1.41974	0.38884
1.43381	0.383194
1.4478	0.377395
1.46172	0.371448
1.47555	0.36536
1.4893	0.359135
1.50298	0.352781
1.51657	0.346304
1.53009	0.339711
1.54354	0.333011
1.55691	0.326211
1.57022	0.319321
1.58345	0.312352
1.59662	0.305313
1.60973	0.298218
1.62279	0.291078
1.6358	0.283908
1.64877	0.276723
1.66171	0.269541
1.67462	0.262378
1.68751	0.255255
1.70041	0.248193
1.71331	0.241215
1.72623	0.234346
1.73918	0.227611
1.75219	0.221036
1.76527	0.21465
1.77842	0.208481
1.79168	0.202555
1.80505	0.196899
1.81855	0.191532
1.83218	0.186471
1.84595	0.181722
1.85987	0.177285
1.87393	0.173153
1.88812	0.169317
1.90244	0.16576
1.91688	0.162465
1.93143	0.159415
1.94609	0.15659
1.96083	0.153972
1.97567	0.151543
1.99057	0.149287
2.00555	0.147189
2.02059	0.145232
2.03569	0.143406
2.05084	0.141697
2.06603	0.140095
2.08127	0.13859
2.09654	0.137173
2.11185	0.135837
2.12719	0.134574
2.14256	0.133378
2.15796	0.132243
2.17339	0.131165
2.18884	0.130138
2.20431	0.129158
2.21981	0.128221
2.23533	0.127325
2.25087	0.126467
2.26643	0.125643
2.28201	0.124852
2.29761	0.12409
2.31324	0.123357
2.32888	0.122651
2.34456	0.121971
2.36025	0.121314
2.37597	0.120681
2.39172	0.12007
2.4075	0.119481
2.4233	0.118913
2.43914	0.118367
2.45501	0.117841
2.47092	0.117336
2.48687	0.116852
2.50286	0.11639
2.5189	0.115951
2.53499	0.115534
2.55113	0.115142
2.56732	0.114775
2.58359	0.114436
2.59992	0.114125
2.61632	0.113845
2.63281	0.1136
2.64938	0.113391
2.66605	0.113221
2.68283	0.113096
2.69972	0.113019
2.71674	0.112995
2.7339	0.113031
2.75121	0.113132
2.76869	0.113306
2.78636	0.113562
2.80424	0.113909
2.82235	0.114359
2.84072	0.114923
2.85937	0.115614
2.87834	0.116448
2.89765	0.117438
2.91734	0.118597
2.93742	0.119936
2.95791	0.121459
2.97878	0.123155
3	0.125
0	0.164474
0.0149143	0.167994
0.0297825	0.17163
0.0445961	0.1754
0.0593466	0.179323
0.0740255	0.183418
0.0886246	0.187704
0.103136	0.192196
0.117554	0.196909
0.131873	0.201857
0.146089	0.207047
0.1602	0.212482
0.17421	0.218161
0.188121	0.224077
0.201942	0.230217
0.215682	0.236565
0.229353	0.243101
0.242967	0.249803
0.256539	0.256648
0.27008	0.263614
0.283604	0.270678
0.297124	0.277816
0.310649	0.285009
0.324191	0.292235
0.337758	0.299475
0.35136	0.306711
0.365002	0.313928
0.378692	0.321108
0.392436	0.328238
0.406236	0.335305
0.420098	0.342295
0.434024	0.349198
0.448017	0.356004
0.462077	0.362701
0.476208	0.369283
0.490408	0.375739
0.504678	0.382063
0.519018	0.388248
0.533427	0.394286
0.547905	0.400173
0.56245	0.405902
0.57706	0.411469
0.591733	0.416868
0.606469	0.422095
0.621264	0.427147
0.636116	0.43202
0.651024	0.436709
0.665983	0.441213
0.680992	0.445528
0.696048	0.449652
0.711148	0.453582
0.72629	0.457317
0.741469	0.460854
0.756684	0.464191
0.771932	0.467328
0.787209	0.470262
0.802512	0.472993
0.817839	0.47552
0.833186	0.477842
0.848551	0.479957
0.863931	0.481866
0.879322	0.483568
0.894721	0.485062
0.910127	0.486349
0.925535	0.487429
0.940943	0.488301
0.956349	0.488965
0.971748	0.489423
0.987139	0.489673
1.00252	0.489718
1.01788	0.489556
1.03323	0.48919
1.04856	0.488619
1.06386	0.487845
1.07915	0.486868
1.0944	0.485691
1.10962	0.484313
1.12481	0.482736
1.13996	0.480961
1.15508	0.478991
1.17016	0.476826
1.18519	0.474469
1.20018	0.471921
1.21512	0.469184
1.23001	0.46626
1.24485	0.463152
1.25963	0.459861
1.27436	0.45639
1.28904	0.452742
1.30365	0.44892
1.3182	0.444925
1.33269	0.440763
1.34712	0.436434
1.36148	0.431944
1.37578	0.427295
1.39001	0.422492
1.40417	0.417537
1.41826	0.412436
1.43228	0.407193
1.44623	0.401813
1.46012	0.396301
1.47393	0.390661
1.48768	0.384901
1.50136	0.379025
1.51497	0.37304
1.52852	0.366954
1.542	0.360773
1.55543	0.354506
1.56879	0.348161
1.5821	0.341747
1.59535	0.335274
1.60856	0.328752
1.62173	0.322193
1.63485	0.315609
1.64795	0.309013
1.66101	0.30242
1.67406	0.295843
1.6871	0.289299
1.70014	0.282805
1.71318	0.276378
1.72624	0.270038
1.73933	0.263803
1.75246	0.257694
1.76563	0.251731
1.77887	0.245933
1.79218	0.240319
1.80557	0.234907
1.81905	0.229713
1.83263	0.22475
1.84631	0.220025
1.86011	0.215545
1.87401	0.211309
1.88802	0.207316
1.90213	0.203559
1.91635	0.200029
1.93066	0.196717
1.94507	0.193611
1.95956	0.190699
1.97413	0.187969
1.98877	0.185407
2.00348	0.183002
2.01826	0.180743
2.03309	0.178617
2.04797	0.176615
2.06291	0.174726
2.07789	0.172942
2.09291	0.171254
2.10796	0.169655
2.12306	0.168138
2.13818	0.166695
2.15334	0.165322
2.16853	0.164013
2.18374	0.162762
2.19899	0.161566
2.21425	0.160421
2.22954	0.159322
2.24486	0.158267
2.2602	0.157252
2.27557	0.156276
2.29096	0.155335
2.30637	0.154427
2.32181	0.153551
2.33728	0.152705
2.35277	0.151888
2.3683	0.151097
2.38385	0.150334
2.39944	0.149595
2.41506	0.148882
2.43072	0.148192
2.44641	0.147528
2.46215	0.146887
2.47794	0.146271
2.49377	0.14568
2.50965	0.145114
2.5256	0.144575
2.5416	0.144063
2.55767	0.14358
2.57381	0.143128
2.59003	0.142709
2.60634	0.142325
2.62274	0.141979
2.63924	0.141675
2.65585	0.141416
2.67259	0.141207
2.68947	0.141053
2.70649	0.140961
2.72368	0.140937
2.74106	0.140989
2.75864	0.141129
2.77645	0.141366
2.79452	0.141714
2.81288	0.142189
2.83158	0.142809
2.85065	0.143597
2.87016	0.144578
2.89016	0.145783
2.91073	0.147245
2.93195	0.149
2.95388	0.15108
2.97658	0.153504
3	0.15625
0	0.197368
0.0147605	0.201293
0.0294817	0.20532
0.0441568	0.209464
0.058779	0.21374
0.0733422	0.218162
0.0878409	0.222742
0.10227	0.227491
0.116626	0.232418
0.130907	0.237529
0.145112	0.242827
0.159242	0.248311
0.173299	0.253978
0.187288	0.259821
0.201215	0.265829
0.215088	0.271989
0.228915	0.278287
0.242706	0.284706
0.256469	0.291229
0.270216	0.297839
0.283954	0.304519
0.297693	0.31125
0.311441	0.318017
0.325206	0.324803
0.338995	0.331593
0.352815	0.338371
0.366671	0.345123
0.380567	0.351838
0.39451	0.358501
0.408501	0.365102
0.422544	0.37163
0.436641	0.378075
0.450795	0.384427
0.465007	0.390677
0.479276	0.396818
0.493605	0.402841
0.507993	0.408741
0.522439	0.414509
0.536944	0.42014
0.551505	0.425629
0.566123	0.43097
0.580795	0.436159
0.59552	0.44119
0.610296	0.446061
0.625121	0.450766
0.639993	0.455303
0.65491	0.459668
0.66987	0.463859
0.684869	0.467873
0.699906	0.471707
0.714979	0.475359
0.730084	0.478827
0.745219	0.482109
0.760381	0.485205
0.775568	0.488111
0.790777	0.490828
0.806006	0.493354
0.821251	0.495688
0.836511	0.497829
0.851782	0.499777
0.867062	0.501532
0.882348	0.503092
0.897638	0.504458
0.912929	0.50563
0.928218	0.506607
0.943504	0.507389
0.958783	0.507978
0.974053	0.508373
0.989312	0.508574
1.00456	0.508583
1.01978	0.508399
1.03499	0.508024
1.05018	0.507458
1.06535	0.506703
1.08049	0.505759
1.0956	0.504627
1.11068	0.503309
1.12573	0.501806
1.14074	0.50012
1.15572	0.498251
1.17066	0.496202
1.18555	0.493974
1.20041	0.491569
1.21522	0.488989
1.22998	0.486237
1.2447	0.483314
1.25936	0.480222
1.27398	0.476965
1.28854	0.473544
1.30304	0.469963
1.31749	0.466224
1.33189	0.46233
1.34622	0.458284
1.3605	0.45409
1.37472	0.449751
1.38888	0.445272
1.40297	0.440655
1.41701	0.435904
1.43098	0.431025
1.44489	0.426022
1.45874	0.420899
1.47254	0.415662
1.48627	0.410316
1.49994	0.404867
1.51355	0.399321
1.52711	0.393683
1.54062	0.387962
1.55407	0.382164
1.56747	0.376298
1.58082	0.37037
1.59414	0.364391
1.60741	0.358369
1.62064	0.352314
1.63384	0.346237
1.64702	0.340149
1.66018	0.334061
1.67332	0.327986
1.68645	0.321937
1.69958	0.315928
1.71272	0.309973
1.72587	0.304086
1.73904	0.298283
1.75223	0.292578
1.76547	0.286988
1.77875	0.281526
1.79209	0.276208
1.80549	0.271047
1.81895	0.266054
1.83249	0.261241
1.84611	0.256615
1.85981	0.252183
1.8736	0.247948
1.88747	0.243911
1.90143	0.240071
1.91547	0.236423
1.92959	0.232965
1.94379	0.229688
1.95807	0.226585
1.97242	0.223649
1.98684	0.220871
2.00132	0.218241
2.01586	0.215751
2.03045	0.213392
2.0451	0.211156
2.05979	0.209034
2.07453	0.207019
2.08932	0.205103
2.10414	0.203279
2.119	0.20154
2.13389	0.199881
2.14882	0.198296
2.16377	0.19678
2.17876	0.195327
2.19378	0.193934
2.20882	0.192596
2.22389	0.191309
2.23898	0.190071
2.25411	0.188877
2.26926	0.187726
2.28443	0.186614
2.29964	0.18554
2.31487	0.184501
2.33013	0.183495
2.34542	0.182521
2.36074	0.181578
2.37609	0.180664
2.39148	0.179778
2.40691	0.17892
2.42237	0.178089
2.43788	0.177285
2.45344	0.176508
2.46904	0.175757
2.4847	0.175033
2.50041	0.174338
2.51618	0.17367
2.53202	0.173033
2.54794	0.172426
2.56393	0.171853
2.58001	0.171314
2.59618	0.170814
2.61245	0.170354
2.62884	0.169938
2.64535	0.169571
2.662	0.169257
2.6788	0.169002
2.69576	0.168814
2.71291	0.168699
2.73027	0.168668
2.74786	0.168732
2.76571	0.168904
2.78386	0.169201
2.80235	0.169643
2.82124	0.170253
2.84059	0.171064
2.86049	0.172115
2.88103	0.173455
2.90238	0.175152
2.9247	0.177291
2.94824	0.179984
2.97326	0.183356
3	0.1875
0	0.230263
0.0146485	0.234502
0.0292663	0.238825
0.043848	0.243246
0.0583884	0.247774
0.0728832	0.25242
0.0873286	0.257193
0.101722	0.262099
0.11606	0.267145
0.130344	0.272332
0.144573	0.277661
0.158748	0.283131
0.172874	0.288736
0.186952	0.294472
0.20099	0.300328
0.214991	0.306296
0.228963	0.312363
0.242913	0.318517
0.256847	0.324745
0.270773	0.331034
0.284697	0.337369
0.298626	0.343736
0.312567	0.350124
0.326524	0.356517
0.340505	0.362904
0.354513	0.369272
0.368553	0.37561
0.382628	0.381906
0.396743	0.38815
0.410899	0.394331
0.4251	0.40044
0.439347	0.406469
0.453641	0.412409
0.467983	0.418251
0.482374	0.42399
0.496815	0.429617
0.511305	0.435127
0.525843	0.440513
0.54043	0.445769
0.555063	0.450892
0.569743	0.455875
0.584467	0.460714
0.599234	0.465406
0.614043	0.469946
0.628891	0.47433
0.643777	0.478557
0.658699	0.482621
0.673655	0.486522
0.688642	0.490255
0.703658	0.49382
0.718701	0.497214
0.733769	0.500435
0.74886	0.503481
0.76397	0.506351
0.779098	0.509044
0.794242	0.511559
0.809399	0.513894
0.824566	0.51605
0.839742	0.518024
0.854924	0.519817
0.87011	0.521428
0.885297	0.522858
0.900484	0.524105
0.915667	0.525169
0.930846	0.526052
0.946016	0.526752
0.961178	0.527271
0.976327	0.527609
0.991463	0.527765
1.00658	0.527741
1.02168	0.527538
1.03676	0.527156
1.05182	0.526595
1.06686	0.525858
1.08187	0.524945
1.09685	0.523856
1.1118	0.522594
1.12672	0.52116
1.1416	0.519555
1.15645	0.517781
1.17126	0.515839
1.18603	0.513731
1.20076	0.511459
1.21545	0.509024
1.2301	0.50643
1.2447	0.503678
1.25925	0.50077
1.27376	0.497708
1.28822	0.494496
1.30262	0.491136
1.31698	0.48763
1.33128	0.483982
1.34553	0.480195
1.35973	0.476272
1.37387	0.472216
1.38796	0.468031
1.40199	0.46372
1.41597	0.459288
1.42989	0.454738
1.44376	0.450076
1.45758	0.445305
1.47134	0.440431
1.48505	0.435457
1.4987	0.430391
1.51231	0.425237
1.52587	0.420001
1.53938	0.41469
1.55284	0.409311
1.56626	0.403869
1.57965	0.398373
1.59299	0.39283
1.6063	0.387248
1.61958	0.381637
1.63283	0.376004
1.64606	0.370361
1.65927	0.364716
1.67247	0.35908
1.68566	0.353463
1.69885	0.347878
1.71204	0.342335
1.72524	0.336846
1.73846	0.331424
1.7517	0.32608
1.76497	0.320827
1.77827	0.315675
1.79162	0.310637
1.80501	0.305722
1.81845	0.300941
1.83195	0.296303
1.84551	0.291814
1.85914	0.28748
1.87283	0.283306
1.88659	0.279295
1.90041	0.275447
1.91431	0.271761
1.92828	0.268236
1.94231	0.264869
1.95641	0.261655
1.97057	0.258589
1.98478	0.255666
1.99906	0.25288
2.01339	0.250224
2.02778	0.247692
2.04221	0.245277
2.05668	0.242972
2.07121	0.240771
2.08577	0.238669
2.10037	0.236658
2.115	0.234733
2.12968	0.232889
2.14438	0.231121
2.15912	0.229423
2.17388	0.227791
2.18868	0.226221
2.2035	0.22471
2.21835	0.223252
2.23323	0.221846
2.24814	0.220487
2.26307	0.219173
2.27804	0.217902
2.29303	0.216671
2.30805	0.215477
2.3231	0.21432
2.33818	0.213196
2.35329	0.212106
2.36844	0.211046
2.38362	0.210017
2.39885	0.209018
2.41411	0.208048
2.42942	0.207105
2.44478	0.206192
2.46019	0.205306
2.47565	0.204449
2.49117	0.20362
2.50676	0.202821
2.52241	0.202053
2.53815	0.201318
2.55396	0.200615
2.56987	0.199949
2.58587	0.199322
2.60198	0.198735
2.61821	0.198194
2.63457	0.197702
2.65107	0.197264
2.66773	0.196887
2.68457	0.196577
2.70161	0.196343
2.71887	0.196194
2.73637	0.196143
2.75416	0.196204
2.77227	0.196395
2.79075	0.196739
2.80967	0.197263
2.8291	0.198004
2.84916	0.199013
2.86999	0.200356
2.8918	0.202133
2.91492	0.204497
2.9399	0.207701
2.9677	0.212194
3	0.21875
0	0.263158
0.014574	0.26763
0.0291265	0.272168
0.0436532	0.276782
0.0581501	0.281479
0.072614	0.286269
0.0870425	0.291156
0.101434	0.296145
0.115786	0.301239
0.1301	0.30644
0.144377	0.311747
0.158617	0.317157
0.172823	0.322667
0.186999	0.328271
0.201147	0.333963
0.215274	0.339734
0.229383	0.345574
0.243479	0.351476
0.257568	0.357426
0.271655	0.363416
0.285745	0.369434
0.299843	0.375469
0.313954	0.38151
0.328082	0.387546
0.342231	0.393567
0.356404	0.399563
0.370606	0.405522
0.384839	0.411437
0.399105	0.417298
0.413407	0.423095
0.427746	0.428822
0.442124	0.43447
0.456541	0.440031
0.470999	0.445499
0.485496	0.450868
0.500035	0.45613
0.514613	0.46128
0.529232	0.466313
0.543889	0.471223
0.558584	0.476006
0.573316	0.480658
0.588084	0.485173
0.602886	0.489549
0.617721	0.493782
0.632587	0.497869
0.647482	0.501806
0.662404	0.505591
0.677352	0.509221
0.692324	0.512695
0.707317	0.516009
0.72233	0.519162
0.737361	0.522153
0.752407	0.524979
0.767466	0.527641
0.782537	0.530135
0.797617	0.532462
0.812705	0.53462
0.827798	0.536609
0.842894	0.538429
0.857991	0.540078
0.873088	0.541556
0.888182	0.542864
0.903271	0.544001
0.918353	0.544967
0.933427	0.545762
0.948491	0.546386
0.963542	0.546841
0.978579	0.547126
0.993599	0.547241
1.0086	0.547188
1.02359	0.546966
1.03855	0.546578
1.05349	0.546023
1.0684	0.545303
1.08329	0.544419
1.09815	0.543371
1.11297	0.542162
1.12777	0.540792
1.14254	0.539263
1.15727	0.537576
1.17196	0.535734
1.18662	0.533737
1.20123	0.531588
1.21581	0.529288
1.23035	0.52684
1.24484	0.524245
1.25929	0.521506
1.2737	0.518625
1.28806	0.515605
1.30237	0.512448
1.31664	0.509157
1.33085	0.505735
1.34502	0.502185
1.35914	0.498509
1.37321	0.494711
1.38724	0.490795
1.40121	0.486764
1.41513	0.482621
1.429	0.478372
1.44283	0.474019
1.4566	0.469567
1.47033	0.465021
1.48401	0.460385
1.49764	0.455664
1.51123	0.450864
1.52478	0.445989
1.53828	0.441046
1.55175	0.436041
1.56518	0.43098
1.57857	0.425869
1.59193	0.420715
1.60526	0.415526
1.61856	0.410309
1.63184	0.405072
1.6451	0.399823
1.65834	0.39457
1.67158	0.389323
1.6848	0.38409
1.69802	0.378881
1.71125	0.373705
1.72448	0.368572
1.73772	0.363492
1.75097	0.358473
1.76425	0.353527
1.77756	0.348662
1.7909	0.343888
1.80427	0.339213
1.81768	0.334645
1.83114	0.330191
1.84464	0.325858
1.8582	0.321651
1.8718	0.317575
1.88547	0.313632
1.89918	0.309825
1.91295	0.306154
1.92678	0.302619
1.94067	0.29922
1.95461	0.295953
1.9686	0.292817
1.98265	0.289807
1.99674	0.286921
2.01088	0.284152
2.02507	0.281498
2.03931	0.278952
2.05359	0.276509
2.0679	0.274166
2.08226	0.271916
2.09665	0.269755
2.11108	0.267678
2.12554	0.26568
2.14003	0.263757
2.15456	0.261905
2.16911	0.260118
2.18369	0.258394
2.1983	0.256729
2.21294	0.25512
2.22761	0.253562
2.2423	0.252054
2.25702	0.250592
2.27177	0.249174
2.28655	0.247797
2.30135	0.24646
2.31619	0.24516