Title="Mesh"
Variables="x","y"
Zone i=201, j=201, f=point
0	0
0.0163499	0
0.0326997	0
0.0490496	0
0.0653994	0
0.0817493	0
0.0980991	0
0.114449	0
0.130799	0
0.147149	0
0.163499	0
0.179848	0
0.196198	0
0.212548	0
0.228898	0
0.25	-1.11022e-16
0.259167	0.013403
0.268573	0.026639
0.278216	0.0397038
0.288093	0.0525931
0.298199	0.0653028
0.308532	0.0778286
0.319089	0.0901667
0.329866	0.102313
0.34086	0.114264
0.352066	0.126015
0.363482	0.137562
0.375104	0.148903
0.386928	0.160032
0.39895	0.170948
0.411167	0.181645
0.423573	0.192121
0.436166	0.202372
0.448942	0.212395
0.461895	0.222187
0.475023	0.231745
0.48832	0.241065
0.501782	0.250144
0.515406	0.25898
0.529186	0.267569
0.543119	0.275909
0.557199	0.283998
0.571422	0.291832
0.585784	0.299409
0.60028	0.306726
0.614905	0.313782
0.629655	0.320573
0.644524	0.327099
0.659508	0.333356
0.674602	0.339342
0.689802	0.345056
0.705101	0.350496
0.720496	0.35566
0.735982	0.360547
0.751552	0.365154
0.767203	0.369481
0.78293	0.373525
0.798726	0.377286
0.814588	0.380762
0.830509	0.383953
0.846486	0.386857
0.862511	0.389473
0.878582	0.391801
0.894691	0.393839
0.910835	0.395588
0.927008	0.397045
0.943204	0.398212
0.959418	0.399088
0.975646	0.399672
0.991881	0.399964
1.00812	0.399964
1.02435	0.399672
1.04058	0.399088
1.0568	0.398212
1.07299	0.397045
1.08916	0.395588
1.10531	0.393839
1.12142	0.391801
1.13749	0.389473
1.15351	0.386857
1.16949	0.383953
1.18541	0.380762
1.20127	0.377286
1.21707	0.373525
1.2328	0.369481
1.24845	0.365154
1.26402	0.360547
1.2795	0.35566
1.2949	0.350496
1.3102	0.345056
1.3254	0.339342
1.34049	0.333356
1.35548	0.327099
1.37035	0.320573
1.38509	0.313782
1.39972	0.306726
1.41422	0.299409
1.42858	0.291832
1.4428	0.283998
1.45688	0.275909
1.47081	0.267569
1.48459	0.25898
1.49822	0.250144
1.51168	0.241065
1.52498	0.231745
1.5381	0.222187
1.55106	0.212395
1.56383	0.202372
1.57643	0.192121
1.58883	0.181645
1.60105	0.170948
1.61307	0.160032
1.6249	0.148903
1.63652	0.137562
1.64793	0.126015
1.65914	0.114264
1.67013	0.102313
1.68091	0.0901667
1.69147	0.0778286
1.7018	0.0653028
1.71191	0.0525931
1.72178	0.0397038
1.73143	0.026639
1.74083	0.013403
1.75	0
1.76645	0
1.78289	0
1.79934	0
1.81579	0
1.83224	0
1.84868	0
1.86513	0
1.88158	0
1.89803	0
1.91447	0
1.93092	0
1.94737	0
1.96382	0
1.98026	0
1.99671	0
2.01316	0
2.02961	0
2.04605	0
2.0625	0
2.07895	0
2.09539	0
2.11184	0
2.12829	0
2.14474	0
2.16118	0
2.17763	0
2.19408	0
2.21053	0
2.22697	0
2.24342	0
2.25987	0
2.27632	0
2.29276	0
2.30921	0
2.32566	0
2.34211	0
2.35855	0
2.375	0
2.39145	0
2.40789	0
2.42434	0
2.44079	0
2.45724	0
2.47368	0
2.49013	0
2.50658	0
2.52303	0
2.53947	0
2.55592	0
2.57237	0
2.58882	0
2.60526	0
2.62171	0
2.63816	0
2.65461	0
2.67105	0
2.6875	0
2.70395	0
2.72039	0
2.73684	0
2.75329	0
2.76974	0
2.78618	0
2.80263	0
2.81908	0
2.83553	0
2.85197	0
2.86842	0
2.88487	0
2.90132	0
2.91776	0
2.93421	0
2.95066	0
2.96711	0
2.98355	0
3	0
0	0.0164474
0.016165	0.0169009
0.0323175	0.0173847
0.0484542	0.0179068
0.0645706	0.0184776
0.0806614	0.0191105
0.0967195	0.019823
0.112736	0.0206386
0.128697	0.0215905
0.144587	0.0227256
0.160382	0.0241136
0.176045	0.0258614
0.191525	0.0281376
0.206741	0.0312172
0.221557	0.0355615
0.235561	0.0419534
0.247925	0.0506344
0.259706	0.0602908
0.271157	0.0705722
0.282442	0.081244
0.293673	0.0921451
0.304924	0.103163
0.316245	0.114218
0.327668	0.125253
0.339218	0.136227
0.350908	0.147107
0.362748	0.15787
0.374746	0.168496
0.386905	0.17897
0.399227	0.18928
0.411713	0.199415
0.424364	0.209366
0.437176	0.219123
0.450151	0.228682
0.463284	0.238034
0.476574	0.247175
0.490018	0.256099
0.503613	0.264801
0.517355	0.273276
0.531241	0.281521
0.545268	0.289532
0.559431	0.297305
0.573726	0.304837
0.58815	0.312124
0.602698	0.319163
0.617366	0.325952
0.632149	0.332487
0.647044	0.338767
0.662045	0.344788
0.677148	0.350549
0.692348	0.356048
0.707641	0.361281
0.723022	0.366249
0.738486	0.370948
0.754029	0.375377
0.769645	0.379534
0.78533	0.383419
0.801079	0.38703
0.816887	0.390365
0.832749	0.393424
0.84866	0.396205
0.864615	0.398708
0.88061	0.400932
0.896639	0.402877
0.912698	0.404541
0.928781	0.405924
0.944884	0.407027
0.961001	0.407848
0.977128	0.408388
0.99326	0.408646
1.00939	0.408622
1.02552	0.408318
1.04163	0.407732
1.05773	0.406865
1.07382	0.405718
1.08987	0.404291
1.1059	0.402585
1.12189	0.400601
1.13784	0.398338
1.15375	0.3958
1.16961	0.392985
1.18542	0.389896
1.20117	0.386533
1.21685	0.382898
1.23247	0.378992
1.24801	0.374818
1.26348	0.370376
1.27886	0.365667
1.29416	0.360695
1.30937	0.355461
1.32448	0.349967
1.3395	0.344215
1.35441	0.338207
1.36921	0.331946
1.3839	0.325434
1.39848	0.318675
1.41293	0.31167
1.42726	0.304423
1.44146	0.296936
1.45554	0.289214
1.46947	0.28126
1.48327	0.273077
1.49692	0.264669
1.51043	0.256041
1.5238	0.247197
1.53701	0.238143
1.55006	0.228883
1.56297	0.219423
1.57571	0.20977
1.5883	0.199932
1.60073	0.189916
1.613	0.179732
1.62511	0.169392
1.63707	0.158909
1.64887	0.148299
1.66053	0.137582
1.67205	0.126785
1.68345	0.11594
1.69476	0.105091
1.70598	0.0942994
1.71718	0.0836446
1.72841	0.0732375
1.73976	0.0632291
1.75134	0.0538266
1.76332	0.0453161
1.7764	0.0389005
1.79046	0.0343588
1.80517	0.0310608
1.82032	0.0286012
1.83577	0.0267166
1.85143	0.0252348
1.86723	0.0240417
1.88314	0.0230611
1.89913	0.0222404
1.91518	0.0215429
1.93128	0.0209422
1.94742	0.0204189
1.96358	0.0199585
1.97977	0.0195497
1.99598	0.0191841
2.01221	0.0188546
2.02845	0.018556
2.0447	0.0182838
2.06096	0.0180344
2.07723	0.0178048
2.09351	0.0175925
2.1098	0.0173955
2.12609	0.017212
2.14239	0.0170405
2.15869	0.0168797
2.175	0.0167285
2.19131	0.0165861
2.20763	0.0164515
2.22395	0.0163241
2.24027	0.0162032
2.2566	0.0160883
2.27293	0.015979
2.28926	0.0158749
2.3056	0.0157755
2.32194	0.0156807
2.33828	0.0155901
2.35463	0.0155036
2.37098	0.0154209
2.38733	0.015342
2.40369	0.0152667
2.42005	0.015195
2.43642	0.0151268
2.45279	0.0150622
2.46917	0.015001
2.48555	0.0149435
2.50194	0.0148895
2.51834	0.0148394
2.53474	0.0147931
2.55115	0.0147509
2.56757	0.0147129
2.58399	0.0146794
2.60043	0.0146507
2.61687	0.0146271
2.63333	0.0146089
2.6498	0.0145965
2.66627	0.0145904
2.68277	0.0145909
2.69927	0.0145988
2.71579	0.0146144
2.73233	0.0146385
2.74888	0.0146717
2.76546	0.0147148
2.78205	0.0147684
2.79867	0.0148332
2.8153	0.0149102
2.83196	0.015
2.84865	0.0151033
2.86536	0.0152207
2.8821	0.0153527
2.89887	0.0154996
2.91566	0.0156613
2.93248	0.0158375
2.94933	0.0160276
2.9662	0.0162303
2.98309	0.016444
3	0.0166667
0	0.0328947
0.0159864	0.0337865
0.0319495	0.034735
0.047883	0.0357551
0.063779	0.0368651
0.0796282	0.038088
0.0954184	0.0394531
0.111134	0.0409984
0.126756	0.0427743
0.142257	0.0448476
0.157603	0.0473084
0.172746	0.0502779
0.187621	0.0539154
0.202139	0.0584196
0.216182	0.0640048
0.229613	0.0708049
0.242407	0.0786998
0.254782	0.0873702
0.266876	0.0966095
0.278795	0.106254
0.290626	0.116176
0.30243	0.126276
0.314257	0.136479
0.32614	0.146724
0.338105	0.156965
0.350172	0.167165
0.362355	0.177294
0.374664	0.187328
0.387106	0.197248
0.399686	0.207036
0.412407	0.216678
0.425272	0.226162
0.43828	0.235477
0.451433	0.244615
0.464729	0.253566
0.478166	0.262324
0.491744	0.270882
0.50546	0.279234
0.519311	0.287374
0.533295	0.295297
0.547408	0.302998
0.561647	0.310474
0.576009	0.317719
0.590489	0.324732
0.605085	0.331507
0.619792	0.338042
0.634605	0.344333
0.649522	0.350379
0.664537	0.356176
0.679647	0.361721
0.694846	0.367013
0.710131	0.37205
0.725497	0.376829
0.740939	0.381349
0.756454	0.385607
0.772035	0.389603
0.787679	0.393335
0.803381	0.396802
0.819136	0.400002
0.83494	0.402935
0.850788	0.405599
0.866675	0.407995
0.882596	0.41012
0.898548	0.411975
0.914524	0.413559
0.930521	0.414872
0.946534	0.415913
0.962558	0.416683
0.978588	0.417181
0.99462	0.417407
1.01065	0.417362
1.02667	0.417046
1.04268	0.416458
1.05867	0.415601
1.07464	0.414473
1.09059	0.413077
1.1065	0.411412
1.12238	0.409479
1.13823	0.40728
1.15402	0.404815
1.16977	0.402086
1.18547	0.399093
1.20111	0.395839
1.21668	0.392325
1.2322	0.388551
1.24764	0.384521
1.26301	0.380235
1.2783	0.375696
1.2935	0.370906
1.30863	0.365866
1.32366	0.36058
1.3386	0.355049
1.35344	0.349276
1.36818	0.343263
1.38281	0.337014
1.39734	0.330532
1.41175	0.323819
1.42605	0.31688
1.44023	0.309717
1.45429	0.302335
1.46822	0.294738
1.48203	0.286929
1.49571	0.278915
1.50926	0.2707
1.52267	0.262289
1.53595	0.253689
1.5491	0.244907
1.5621	0.23595
1.57497	0.226827
1.58771	0.217546
1.60031	0.208119
1.61278	0.198558
1.62512	0.188878
1.63733	0.179096
1.64943	0.169231
1.66142	0.159309
1.67332	0.14936
1.68514	0.13942
1.6969	0.129535
1.70865	0.119765
1.7204	0.110182
1.73223	0.100878
1.74419	0.0919671
1.75637	0.0835924
1.76886	0.0759248
1.78183	0.0692351
1.79536	0.0636375
1.8094	0.0590451
1.82387	0.0552947
1.83868	0.052221
1.85377	0.0496814
1.86907	0.0475614
1.88453	0.0457717
1.90012	0.0442442
1.91582	0.0429268
1.93159	0.0417793
1.94744	0.040771
1.96333	0.0398777
1.97928	0.0390803
1.99526	0.0383639
2.01127	0.0377162
2.02731	0.0371274
2.04337	0.0365893
2.05945	0.0360953
2.07555	0.0356398
2.09167	0.035218
2.10779	0.0348261
2.12393	0.0344607
2.14008	0.0341189
2.15624	0.0337982
2.17241	0.0334965
2.18859	0.0332119
2.20477	0.032943
2.22097	0.0326882
2.23717	0.0324464
2.25337	0.0322165
2.26958	0.0319976
2.2858	0.031789
2.30203	0.0315898
2.31826	0.0313997
2.3345	0.0312179
2.35075	0.0310442
2.367	0.0308782
2.38326	0.0307195
2.39953	0.0305681
2.41581	0.0304236
2.43209	0.0302861
2.44839	0.0301555
2.46469	0.0300318
2.48101	0.0299151
2.49734	0.0298055
2.51368	0.0297032
2.53003	0.0296086
2.5464	0.0295218
2.56278	0.0294433
2.57918	0.0293736
2.59559	0.0293132
2.61203	0.0292626
2.62848	0.0292226
2.64496	0.029194
2.66146	0.0291776
2.67799	0.0291743
2.69455	0.0291853
2.71113	0.0292117
2.72775	0.0292549
2.7444	0.0293161
2.76109	0.0293968
2.77782	0.0294988
2.7946	0.0296235
2.81142	0.0297728
2.82828	0.0299483
2.8452	0.0301516
2.86218	0.0303843
2.87921	0.0306475
2.8963	0.0309423
2.91345	0.031269
2.93066	0.0316271
2.94792	0.0320154
2.96523	0.0324317
2.9826	0.0328726
3	0.0333333
0	0.0493421
0.015816	0.0506529
0.0315995	0.0520427
0.0473421	0.053531
0.0630337	0.0551418
0.0786619	0.0569038
0.0942121	0.0588526
0.109666	0.0610324
0.125	0.0634979
0.140187	0.0663172
0.15519	0.0695734
0.169967	0.0733647
0.184466	0.0777999
0.19863	0.0829843
0.212407	0.088992
0.225769	0.0958253
0.238749	0.103394
0.251433	0.11156
0.263899	0.120198
0.276219	0.129195
0.288454	0.138458
0.300652	0.147905
0.312855	0.157473
0.325092	0.167107
0.337389	0.176764
0.349764	0.186407
0.362232	0.196005
0.374805	0.205535
0.387491	0.214973
0.400296	0.224301
0.413224	0.233505
0.42628	0.242571
0.439464	0.251485
0.452777	0.260239
0.46622	0.268822
0.479792	0.277226
0.493493	0.285444
0.50732	0.293468
0.521271	0.301293
0.535344	0.308913
0.549537	0.316323
0.563846	0.323518
0.578269	0.330493
0.592801	0.337244
0.607441	0.343768
0.622183	0.350062
0.637024	0.356121
0.65196	0.361943
0.666987	0.367525
0.682101	0.372865
0.697298	0.37796
0.712574	0.382807
0.727924	0.387406
0.743344	0.391754
0.758829	0.39585
0.774376	0.399691
0.789979	0.403277
0.805635	0.406606
0.821339	0.409677
0.837086	0.412489
0.852872	0.415042
0.868692	0.417334
0.884543	0.419365
0.900419	0.421135
0.916316	0.422643
0.93223	0.423888
0.948156	0.424871
0.964089	0.425592
0.980027	0.426051
0.995963	0.426248
1.01189	0.426182
1.02782	0.425855
1.04372	0.425267
1.05961	0.424419
1.07548	0.423311
1.09132	0.421944
1.10713	0.420318
1.1229	0.418436
1.13863	0.416297
1.15432	0.413903
1.16997	0.411256
1.18556	0.408356
1.20109	0.405206
1.21657	0.401806
1.23198	0.398159
1.24733	0.394266
1.2626	0.39013
1.2778	0.385751
1.29292	0.381133
1.30796	0.376278
1.32292	0.371188
1.33778	0.365866
1.35255	0.360314
1.36723	0.354536
1.38181	0.348534
1.39629	0.342312
1.41066	0.335874
1.42493	0.329222
1.43908	0.322361
1.45313	0.315296
1.46706	0.30803
1.48087	0.300569
1.49457	0.292918
1.50815	0.285082
1.52161	0.277068
1.53494	0.268883
1.54816	0.260535
1.56125	0.252031
1.57423	0.243381
1.58708	0.234596
1.59982	0.225687
1.61245	0.216668
1.62497	0.207555
1.63739	0.198366
1.64972	0.189122
1.66197	0.179847
1.67414	0.170572
1.68627	0.161331
1.69837	0.152167
1.71046	0.143129
1.72258	0.134279
1.73477	0.125686
1.74708	0.117436
1.75956	0.109623
1.77229	0.102353
1.78531	0.0957399
1.7987	0.0898648
1.81246	0.0847393
1.82657	0.0803171
1.84099	0.0765203
1.85568	0.0732617
1.8706	0.070457
1.8857	0.0680315
1.90096	0.0659214
1.91634	0.0640737
1.93183	0.0624452
1.94741	0.0610003
1.96306	0.0597103
1.97877	0.0585519
1.99453	0.0575056
2.01034	0.0565558
2.02619	0.0556892
2.04206	0.0548951
2.05797	0.0541642
2.0739	0.0534887
2.08985	0.0528623
2.10582	0.0522794
2.12181	0.051735
2.13781	0.0512253
2.15383	0.0507466
2.16986	0.0502958
2.18591	0.0498704
2.20196	0.0494679
2.21803	0.0490864
2.2341	0.0487241
2.25019	0.0483795
2.26628	0.0480513
2.28239	0.0477381
2.2985	0.0474391
2.31463	0.0471534
2.33076	0.0468802
2.34691	0.0466189
2.36306	0.0463689
2.37923	0.0461298
2.3954	0.0459014
2.41159	0.0456832
2.4278	0.0454753
2.44401	0.0452776
2.46024	0.0450899
2.47649	0.0449125
2.49275	0.0447456
2.50903	0.0445894
2.52533	0.0444442
2.54165	0.0443105
2.55799	0.044189
2.57436	0.0440802
2.59075	0.0439849
2.60717	0.043904
2.62362	0.0438385
2.6401	0.0437895
2.65662	0.0437585
2.67317	0.0437467
2.68977	0.0437559
2.70641	0.0437877
2.7231	0.0438443
2.73984	0.0439276
2.75663	0.0440402
2.77349	0.0441845
2.79041	0.0443631
2.8074	0.044579
2.82447	0.044835
2.84162	0.045134
2.85885	0.0454788
2.87617	0.0458718
2.89359	0.0463151
2.9111	0.0468099
2.92871	0.0473561
2.94641	0.0479525
2.9642	0.0485959
2.98206	0.0492809
3	0.05
0	0.0657895
0.0156551	0.0674971
0.0312705	0.0693011
0.0468363	0.0712244
0.0623411	0.0732937
0.0777713	0.0755404
0.0931109	0.0780019
0.108341	0.0807223
0.123439	0.0837534
0.138379	0.087155
0.15313	0.0909933
0.16766	0.0953382
0.181935	0.100255
0.195924	0.105795
0.20961	0.111977
0.222996	0.118778
0.236113	0.126135
0.24901	0.133968
0.261739	0.14219
0.274349	0.150722
0.286886	0.159492
0.299388	0.168437
0.311888	0.177502
0.324412	0.18664
0.336982	0.195812
0.349616	0.204984
0.362328	0.214127
0.375129	0.223215
0.388028	0.232228
0.401032	0.241148
0.414145	0.249957
0.427372	0.258642
0.440714	0.26719
0.454174	0.275589
0.467752	0.283831
0.481447	0.291907
0.49526	0.299807
0.509189	0.307525
0.523232	0.315054
0.537388	0.322388
0.551655	0.329522
0.566028	0.336451
0.580507	0.343169
0.595088	0.349672
0.609766	0.355957
0.62454	0.36202
0.639406	0.367857
0.654359	0.373466
0.669396	0.378843
0.684513	0.383985
0.699706	0.388892
0.714972	0.393559
0.730305	0.397985
0.745702	0.402168
0.761158	0.406108
0.776671	0.409801
0.792234	0.413246
0.807844	0.416443
0.823497	0.419391
0.839189	0.422088
0.854914	0.424534
0.87067	0.426727
0.886451	0.428669
0.902254	0.430357
0.918075	0.431792
0.933908	0.432974
0.949751	0.433902
0.965598	0.434577
0.981446	0.434998
0.99729	0.435167
1.01313	0.435082
1.02895	0.434746
1.04476	0.434158
1.06055	0.433319
1.07632	0.43223
1.09206	0.430891
1.10776	0.429304
1.12343	0.42747
1.13907	0.42539
1.15465	0.423065
1.1702	0.420496
1.18569	0.417685
1.20113	0.414634
1.21651	0.411344
1.23182	0.407817
1.24708	0.404055
1.26226	0.40006
1.27738	0.395835
1.29241	0.391381
1.30737	0.3867
1.32225	0.381797
1.33705	0.376672
1.35176	0.37133
1.36637	0.365773
1.3809	0.360004
1.39533	0.354027
1.40966	0.347846
1.4239	0.341464
1.43803	0.334887
1.45206	0.328117
1.46598	0.32116
1.4798	0.314022
1.49351	0.306707
1.50711	0.299223
1.5206	0.291575
1.53398	0.283771
1.54725	0.275818
1.56042	0.267726
1.57348	0.259505
1.58644	0.251165
1.59929	0.242718
1.61205	0.234179
1.62472	0.225563
1.63731	0.216888
1.64982	0.208175
1.66227	0.199448
1.67466	0.190733
1.68702	0.182062
1.69936	0.173474
1.71171	0.165009
1.72408	0.156718
1.73653	0.148656
1.74907	0.140886
1.76176	0.133475
1.77462	0.126495
1.78771	0.120013
1.80106	0.114086
1.81469	0.108738
1.8286	0.103964
1.84278	0.0997334
1.85719	0.0959974
1.87183	0.0927021
1.88665	0.0897925
1.90163	0.087217
1.91675	0.0849294
1.93198	0.0828891
1.94732	0.0810612
1.96274	0.0794161
1.97824	0.0779287
1.99379	0.076578
2.00941	0.075346
2.02506	0.0742177
2.04076	0.0731801
2.0565	0.0722225
2.07226	0.0713354
2.08806	0.070511
2.10388	0.0697424
2.11972	0.0690236
2.13558	0.0683495
2.15146	0.0677158
2.16735	0.0671184
2.18326	0.066554
2.19919	0.0660196
2.21513	0.0655127
2.23108	0.065031
2.24705	0.0645724
2.26303	0.0641353
2.27902	0.0637181
2.29502	0.0633194
2.31104	0.0629382
2.32707	0.0625734
2.34311	0.0622242
2.35916	0.0618899
2.37523	0.06157
2.39132	0.0612639
2.40742	0.0609713
2.42353	0.0606921
2.43967	0.0604261
2.45582	0.0601733
2.47199	0.0599338
2.48819	0.0597078
2.50441	0.0594957
2.52065	0.059298
2.53691	0.0591151
2.55321	0.0589479
2.56954	0.0587971
2.5859	0.0586638
2.6023	0.058549
2.61873	0.0584542
2.63521	0.0583808
2.65173	0.0583305
2.6683	0.0583053
2.68493	0.0583073
2.70161	0.0583389
2.71836	0.0584027
2.73517	0.0585019
2.75206	0.0586395
2.76904	0.0588192
2.78609	0.0590448
2.80325	0.0593205
2.8205	0.0596506
2.83787	0.0600396
2.85535	0.060492
2.87297	0.0610121
2.89071	0.0616036
2.90859	0.0622691
2.92661	0.0630102
2.94477	0.0638258
2.96307	0.0647125
2.98148	0.0656631
3	0.0666667
0	0.0822368
0.0155047	0.0843168
0.0309645	0.0865059
0.0463689	0.0888287
0.0617057	0.0913126
0.0769612	0.0939895
0.0921194	0.0968952
0.107163	0.100071
0.122071	0.103561
0.136821	0.107413
0.151392	0.111679
0.165759	0.116403
0.179902	0.121623
0.193809	0.127361
0.207476	0.133616
0.220914	0.140362
0.234149	0.147552
0.247214	0.15513
0.260148	0.163033
0.272987	0.171203
0.285765	0.179581
0.298513	0.188117
0.311258	0.196766
0.324022	0.205487
0.336824	0.214244
0.34968	0.223008
0.362604	0.23175
0.375606	0.240448
0.388694	0.24908
0.401876	0.25763
0.415155	0.26608
0.428537	0.274416
0.442023	0.282626
0.455616	0.290698
0.469317	0.298623
0.483126	0.306391
0.497042	0.313993
0.511065	0.321423
0.525194	0.328673
0.539426	0.335737
0.55376	0.342609
0.568194	0.349285
0.582724	0.355758
0.597348	0.362026
0.612063	0.368082
0.626866	0.373925
0.641753	0.37955
0.656721	0.384954
0.671766	0.390135
0.686884	0.395089
0.702072	0.399814
0.717326	0.404308
0.732642	0.408569
0.748016	0.412595
0.763443	0.416384
0.778921	0.419935
0.794445	0.423246
0.81001	0.426317
0.825613	0.429146
0.841251	0.431733
0.856918	0.434076
0.87261	0.436176
0.888325	0.438031
0.904057	0.439642
0.919803	0.441008
0.935559	0.442128
0.951321	0.443004
0.967085	0.443635
0.982846	0.444022
0.998602	0.444164
1.01435	0.444062
1.03008	0.443717
1.0458	0.44313
1.06149	0.4423
1.07716	0.44123
1.0928	0.439919
1.10841	0.43837
1.12399	0.436582
1.13952	0.434558
1.15501	0.432299
1.17046	0.429805
1.18586	0.42708
1.2012	0.424124
1.21649	0.420939
1.23172	0.417527
1.24688	0.41389
1.26198	0.41003
1.27701	0.40595
1.29197	0.401652
1.30686	0.397138
1.32166	0.392411
1.33639	0.387474
1.35104	0.38233
1.3656	0.376982
1.38007	0.371433
1.39446	0.365688
1.40875	0.359749
1.42295	0.353621
1.43706	0.347309
1.45107	0.340817
1.46498	0.334149
1.47879	0.327312
1.49251	0.320311
1.50613	0.313152
1.51965	0.305843
1.53306	0.29839
1.54639	0.290802
1.55961	0.283087
1.57274	0.275256
1.58578	0.26732
1.59873	0.25929
1.6116	0.251181
1.6244	0.243008
1.63712	0.234787
1.64977	0.226538
1.66238	0.218284
1.67495	0.21005
1.68748	0.201863
1.70001	0.193755
1.71255	0.185764
1.72512	0.177929
1.73775	0.170295
1.75046	0.16291
1.76329	0.155826
1.77626	0.149093
1.78941	0.14276
1.80276	0.136868
1.81632	0.131441
1.83011	0.126489
1.84413	0.122001
1.85835	0.117953
1.87277	0.114313
1.88737	0.111043
1.90212	0.108105
1.91702	0.105461
1.93203	0.103076
1.94716	0.100919
1.96237	0.0989621
1.97767	0.0971808
1.99303	0.0955537
2.00846	0.0940623
2.02394	0.0926906
2.03947	0.0914247
2.05504	0.0902526
2.07065	0.0891641
2.08629	0.08815
2.10196	0.0872026
2.11765	0.0863151
2.13337	0.0854815
2.14911	0.0846966
2.16487	0.0839558
2.18066	0.0832552
2.19645	0.0825913
2.21227	0.0819608
2.2281	0.0813612
2.24395	0.0807899
2.25981	0.0802449
2.27569	0.0797244
2.29158	0.0792266
2.30749	0.0787503
2.32341	0.0782941
2.33935	0.0778571
2.3553	0.0774384
2.37128	0.0770372
2.38727	0.076653
2.40328	0.0762854
2.4193	0.075934
2.43535	0.0755988
2.45143	0.0752797
2.46752	0.0749767
2.48364	0.0746902
2.49979	0.0744205
2.51597	0.0741681
2.53218	0.0739338
2.54843	0.0737183
2.56471	0.0735227
2.58103	0.0733482
2.5974	0.0731961
2.61381	0.073068
2.63028	0.0729659
2.6468	0.0728917
2.66338	0.0728478
2.68002	0.072837
2.69674	0.0728622
2.71353	0.0729269
2.73041	0.0730348
2.74738	0.0731901
2.76445	0.0733974
2.78163	0.0736621
2.79893	0.0739896
2.81636	0.074386
2.83394	0.0748578
2.85167	0.0754117
2.86956	0.0760543
2.88763	0.0767919
2.90588	0.07763
2.92433	0.0785722
2.94298	0.0796195
2.96182	0.0807687
2.98083	0.0820116
3	0.0833333
0	0.0986842
0.0153657	0.10111
0.0306833	0.103654
0.045942	0.10634
0.0611298	0.109196
0.0762333	0.11225
0.0912379	0.115538
0.106128	0.119093
0.120886	0.122953
0.135494	0.127155
0.149937	0.131736
0.164199	0.136724
0.178269	0.14214
0.192142	0.147991
0.205823	0.154268
0.219325	0.160947
0.232667	0.167992
0.245876	0.175359
0.258981	0.183
0.272009	0.190869
0.284989	0.198921
0.297944	0.207112
0.310897	0.215405
0.323867	0.223764
0.33687	0.232159
0.349921	0.240562
0.363032	0.248947
0.376212	0.257294
0.38947	0.265582
0.402811	0.273793
0.416241	0.281913
0.429764	0.289928
0.443382	0.297825
0.457097	0.305592
0.470911	0.31322
0.484824	0.320699
0.498836	0.328021
0.512946	0.335179
0.527153	0.342165
0.541456	0.348972
0.555853	0.355596
0.570342	0.362031
0.584919	0.368271
0.599584	0.374313
0.614332	0.380152
0.62916	0.385784
0.644067	0.391206
0.659047	0.396415
0.674098	0.401407
0.689216	0.40618
0.704398	0.410732
0.719639	0.41506
0.734937	0.419162
0.750287	0.423037
0.765686	0.426682
0.781129	0.430097
0.796614	0.433279
0.812135	0.436229
0.82769	0.438945
0.843274	0.441426
0.858884	0.443671
0.874516	0.445681
0.890165	0.447454
0.905829	0.44899
0.921503	0.45029
0.937184	0.451353
0.952868	0.452179
0.968551	0.452768
0.98423	0.453121
0.999901	0.453239
1.01556	0.453121
1.0312	0.452768
1.04683	0.452182
1.06243	0.451362
1.07801	0.45031
1.09356	0.449027
1.10908	0.447513
1.12456	0.445771
1.14	0.443801
1.1554	0.441605
1.17075	0.439184
1.18606	0.43654
1.20131	0.433675
1.21651	0.430591
1.23166	0.427289
1.24674	0.423771
1.26176	0.420041
1.27671	0.416099
1.29159	0.411949
1.30641	0.407593
1.32114	0.403035
1.33581	0.398276
1.35039	0.393319
1.3649	0.38817
1.37932	0.382829
1.39366	0.377302
1.40792	0.371593
1.42209	0.365705
1.43616	0.359642
1.45016	0.35341
1.46406	0.347014
1.47786	0.340459
1.49158	0.33375
1.50521	0.326895
1.51875	0.319901
1.5322	0.312773
1.54556	0.305522
1.55883	0.298155
1.57202	0.290683
1.58513	0.283115
1.59816	0.275465
1.61112	0.267745
1.62401	0.25997
1.63684	0.252155
1.64962	0.24432
1.66235	0.236484
1.67506	0.22867
1.68774	0.220903
1.70042	0.213211
1.71311	0.205625
1.72582	0.198178
1.73859	0.190907
1.75143	0.183851
1.76437	0.177049
1.77742	0.17054
1.79062	0.164363
1.80397	0.158548
1.8175	0.153118
1.83122	0.148086
1.84512	0.143452
1.8592	0.139206
1.87346	0.135328
1.88788	0.131795
1.90245	0.128578
1.91715	0.125651
1.93198	0.122983
1.94691	0.120549
1.96194	0.118323
1.97706	0.116284
1.99224	0.11441
2.0075	0.112683
2.02281	0.111088
2.03818	0.109611
2.05359	0.108238
2.06904	0.10696
2.08453	0.105766
2.10006	0.104648
2.11561	0.103598
2.13119	0.102611
2.1468	0.10168
2.16243	0.1008
2.17808	0.0999665
2.19375	0.0991759
2.20945	0.0984244
2.22516	0.0977089
2.24089	0.0970267
2.25663	0.0963752
2.2724	0.0957525
2.28818	0.0951566
2.30398	0.0945858
2.31979	0.0940387
2.33563	0.0935142
2.35148	0.0930111
2.36735	0.0925286
2.38325	0.0920661
2.39916	0.091623
2.4151	0.0911989
2.43107	0.0907936
2.44705	0.0904071
2.46307	0.0900395
2.47912	0.0896909
2.49519	0.0893619
2.51131	0.089053
2.52746	0.088765
2.54364	0.0884988
2.55988	0.0882556
2.57615	0.0880367
2.59248	0.0878437
2.60886	0.0876785
2.62531	0.0875432
2.64181	0.0874403
2.65839	0.0873726
2.67504	0.0873431
2.69178	0.0873557
2.7086	0.0874142
2.72553	0.0875233
2.74257	0.0876882
2.75972	0.0879148
2.77701	0.0882094
2.79444	0.0885794
2.81204	0.0890327
2.8298	0.0895782
2.84776	0.0902252
2.86592	0.0909836
2.88431	0.0918633
2.90295	0.0928736
2.92184	0.0940223
2.941	0.0953141
2.96042	0.0967482
2.9801	0.0983164
3	0.1
0	0.115132
0.0152385	0.117877
0.0304275	0.120745
0.0455565	0.123759
0.0606138	0.126944
0.0755871	0.130328
0.0904634	0.13394
0.105229	0.13781
0.11987	0.141968
0.134374	0.146443
0.148729	0.151258
0.162925	0.156432
0.176958	0.161975
0.190828	0.167887
0.204542	0.174157
0.218111	0.180762
0.231553	0.187673
0.24489	0.194855
0.258143	0.202271
0.271334	0.209882
0.284487	0.217651
0.297621	0.225542
0.310755	0.233523
0.323906	0.241563
0.337087	0.249635
0.350311	0.257714
0.363589	0.265777
0.376929	0.273803
0.39034	0.281775
0.403826	0.289676
0.417393	0.297491
0.431044	0.305207
0.444783	0.312811
0.458611	0.320293
0.47253	0.327642
0.486539	0.33485
0.500639	0.341907
0.51483	0.348807
0.52911	0.355542
0.543479	0.362106
0.557933	0.368494
0.572473	0.374699
0.587094	0.380717
0.601795	0.386543
0.616573	0.392173
0.631425	0.397604
0.646348	0.402831
0.661339	0.407853
0.676394	0.412664
0.691511	0.417264
0.706685	0.421649
0.721913	0.425817
0.737193	0.429767
0.752519	0.433497
0.767889	0.437004
0.783298	0.440288
0.798744	0.443347
0.814222	0.446181
0.829729	0.448788
0.845262	0.451167
0.860816	0.453319
0.876388	0.455242
0.891975	0.456937
0.907572	0.458402
0.923177	0.459639
0.938785	0.460646
0.954394	0.461425
0.97	0.461975
0.985599	0.462297
1.00119	0.462391
1.01676	0.462258
1.03232	0.461899
1.04786	0.461313
1.06338	0.460503
1.07887	0.459469
1.09433	0.458213
1.10976	0.456734
1.12515	0.455036
1.1405	0.453118
1.15581	0.450983
1.17108	0.448632
1.1863	0.446067
1.20147	0.443289
1.21658	0.440301
1.23164	0.437104
1.24664	0.433701
1.26158	0.430093
1.27646	0.426284
1.29127	0.422276
1.30602	0.418071
1.32069	0.413672
1.33529	0.409082
1.34982	0.404305
1.36427	0.399343
1.37865	0.3942
1.39294	0.38888
1.40716	0.383387
1.42129	0.377725
1.43535	0.371898
1.44932	0.365911
1.4632	0.35977
1.477	0.353479
1.49072	0.347045
1.50436	0.340474
1.51791	0.333773
1.53138	0.326949
1.54477	0.32001
1.55808	0.312965
1.57132	0.305823
1.58448	0.298595
1.59758	0.291293
1.61061	0.283928
1.62358	0.276515
1.63651	0.269068
1.64938	0.261605
1.66222	0.254143
1.67503	0.246704
1.68783	0.23931
1.70063	0.231984
1.71343	0.224754
1.72627	0.217647
1.73915	0.210695
1.75208	0.203928
1.7651	0.19738
1.77822	0.191081
1.79145	0.18506
1.80482	0.179345
1.81833	0.173956
1.83199	0.168904
1.84581	0.164196
1.85979	0.159828
1.87392	0.155791
1.8882	0.15207
1.90262	0.148645
1.91716	0.145496
1.93182	0.1426
1.94659	0.139936
1.96145	0.137482
1.9764	0.135219
1.99142	0.133127
2.00652	0.131191
2.02167	0.129393
2.03688	0.127722
2.05214	0.126164
2.06745	0.124708
2.0828	0.123345
2.09818	0.122066
2.11359	0.120863
2.12904	0.119728
2.14452	0.118656
2.16002	0.117642
2.17554	0.11668
2.19109	0.115767
2.20666	0.114897
2.22225	0.114068
2.23786	0.113277
2.25349	0.112521
2.26914	0.111798
2.28481	0.111105
2.3005	0.110441
2.31621	0.109804
2.33194	0.109192
2.34769	0.108605
2.36347	0.108041
2.37926	0.107501
2.39508	0.106982
2.41093	0.106484
2.4268	0.106008
2.44271	0.105554
2.45864	0.10512
2.47461	0.104708
2.49061	0.104319
2.50665	0.103951
2.52273	0.103608
2.53886	0.103288
2.55503	0.102995
2.57126	0.102728
2.58754	0.102491
2.60388	0.102285
2.62029	0.102112
2.63678	0.101975
2.65334	0.101878
2.66999	0.101824
2.68673	0.101818
2.70358	0.101863
2.72054	0.101965
2.73762	0.102131
2.75485	0.102368
2.77222	0.102682
2.78977	0.103084
2.8075	0.103584
2.82544	0.104192
2.84361	0.104921
2.86203	0.105785
2.88073	0.1068
2.89974	0.107979
2.91908	0.109337
2.93878	0.110886
2.95884	0.11263
2.97926	0.114564
3	0.116667
0	0.131579
0.0151235	0.134618
0.0301976	0.137779
0.0452123	0.141085
0.0601568	0.144561
0.0750201	0.14823
0.0897908	0.152117
0.104458	0.156248
0.11901	0.160646
0.133438	0.165331
0.147734	0.17032
0.161894	0.175625
0.175914	0.181249
0.189799	0.187189
0.203555	0.193431
0.217194	0.199958
0.230731	0.206743
0.244183	0.213758
0.257568	0.220973
0.270904	0.228355
0.28421	0.235873
0.297502	0.243497
0.310797	0.251199
0.324107	0.258952
0.337447	0.266732
0.350827	0.274517
0.364255	0.282285
0.377741	0.290017
0.39129	0.297698
0.404909	0.305311
0.418602	0.312842
0.432372	0.320279
0.446222	0.327609
0.460154	0.334822
0.474169	0.341908
0.488268	0.348858
0.50245	0.355665
0.516716	0.36232
0.531063	0.368817
0.545492	0.375149
0.560001	0.381311
0.574587	0.387297
0.589248	0.393102
0.603983	0.398722
0.618788	0.404153
0.633661	0.40939
0.648598	0.414431
0.663598	0.419272
0.678656	0.423911
0.69377	0.428344
0.708935	0.432569
0.72415	0.436584
0.73941	0.440388
0.754713	0.443978
0.770053	0.447352
0.785429	0.450511
0.800837	0.453451
0.816273	0.456174
0.831733	0.458676
0.847215	0.460959
0.862715	0.46302
0.878229	0.464861
0.893755	0.466481
0.909288	0.467878
0.924825	0.469055
0.940364	0.470009
0.9559	0.470743
0.971431	0.471256
0.986953	0.471548
1.00246	0.47162
1.01796	0.471473
1.03344	0.471107
1.04889	0.470524
1.06433	0.469724
1.07973	0.468708
1.09511	0.467477
1.11045	0.466033
1.12575	0.464376
1.14102	0.462509
1.15625	0.460433
1.17143	0.458149
1.18657	0.455659
1.20165	0.452965
1.21669	0.450069
1.23167	0.446974
1.2466	0.44368
1.26146	0.44019
1.27627	0.436507
1.29101	0.432634
1.30569	0.428573
1.3203	0.424326
1.33484	0.419898
1.34931	0.41529
1.36371	0.410507
1.37804	0.405551
1.3923	0.400428
1.40647	0.395139
1.42057	0.389691
1.4346	0.384087
1.44855	0.378332
1.46242	0.37243
1.47621	0.366389
1.48992	0.360212
1.50356	0.353908
1.51712	0.347481
1.53061	0.34094
1.54402	0.334292
1.55737	0.327546
1.57064	0.320712
1.58385	0.313798
1.597	0.306815
1.61009	0.299777
1.62313	0.292695
1.63613	0.285584
1.64908	0.278459
1.66201	0.271337
1.67491	0.264237
1.6878	0.257177
1.70069	0.25018
1.71359	0.243268
1.72652	0.236466
1.73948	0.2298
1.7525	0.223295
1.76558	0.216979
1.77875	0.210877
1.79201	0.205014
1.80538	0.199412
1.81888	0.194089
1.83251	0.189056
1.84626	0.184322
1.86016	0.179888
1.87419	0.175749
1.88835	0.171897
1.90264	0.168319
1.91705	0.165
1.93156	0.161923
1.94618	0.159071
1.96089	0.156427
1.97569	0.153972
1.99056	0.151692
2.00551	0.14957
2.02052	0.147592
2.03558	0.145745
2.0507	0.144017
2.06586	0.142398
2.08107	0.140877
2.09632	0.139446
2.1116	0.138098
2.12691	0.136824
2.14226	0.135618