Title="Mesh"
Variables="x","y"
Zone i=301, j=301, f=point
0	0
0.0108999	0
0.0217998	0
0.0326997	0
0.0435996	0
0.0544995	0
0.0653994	0
0.0762993	0
0.0871992	0
0.0980991	0
0.108999	0
0.119899	0
0.130799	0
0.141699	0
0.152599	0
0.163499	0
0.174398	0
0.185298	0
0.196198	0
0.207098	0
0.217998	0
0.228898	0
0.239798	0
0.25	-1.11022e-16
0.256141	0.00903625
0.262392	0.0179975
0.26875	0.0268826
0.275215	0.03569
0.281786	0.0444186
0.288463	0.0530671
0.295243	0.0616341
0.302127	0.0701185
0.309113	0.078519
0.3162	0.0868344
0.323387	0.0950635
0.330673	0.103205
0.338057	0.111258
0.345538	0.119221
0.353114	0.127092
0.360786	0.134872
0.368551	0.142558
0.376408	0.15015
0.384357	0.157646
0.392395	0.165045
0.400523	0.172347
0.408738	0.179549
0.41704	0.186652
0.425427	0.193654
0.433898	0.200554
0.442453	0.207351
0.451088	0.214044
0.459804	0.220631
0.468599	0.227114
0.477472	0.233489
0.486422	0.239756
0.495446	0.245915
0.504545	0.251964
0.513716	0.257902
0.522958	0.263729
0.532269	0.269444
0.54165	0.275046
0.551097	0.280534
0.56061	0.285907
0.570188	0.291165
0.579828	0.296306
0.58953	0.301331
0.599292	0.306237
0.609112	0.311026
0.61899	0.315695
0.628923	0.320244
0.638911	0.324673
0.648952	0.328981
0.659044	0.333167
0.669186	0.33723
0.679376	0.341171
0.689613	0.344988
0.699896	0.34868
0.710223	0.352248
0.720592	0.355691
0.731001	0.359009
0.741451	0.3622
0.751938	0.365264
0.762461	0.368202
0.773019	0.371011
0.783611	0.373693
0.794234	0.376247
0.804887	0.378672
0.815569	0.380968
0.826278	0.383134
0.837012	0.385171
0.84777	0.387078
0.85855	0.388854
0.869351	0.3905
0.880171	0.392015
0.891009	0.393399
0.901862	0.394652
0.91273	0.395774
0.923611	0.396764
0.934503	0.397622
0.945405	0.398348
0.956314	0.398943
0.96723	0.399405
0.978151	0.399736
0.989075	0.399934
1	0.4
1.01093	0.399934
1.02185	0.399736
1.03277	0.399405
1.04369	0.398943
1.0546	0.398348
1.0655	0.397622
1.07639	0.396764
1.08727	0.395774
1.09814	0.394652
1.10899	0.393399
1.11983	0.392015
1.13065	0.3905
1.14145	0.388854
1.15223	0.387078
1.16299	0.385171
1.17372	0.383134
1.18443	0.380968
1.19511	0.378672
1.20577	0.376247
1.21639	0.373693
1.22698	0.371011
1.23754	0.368202
1.24806	0.365264
1.25855	0.3622
1.269	0.359009
1.27941	0.355691
1.28978	0.352248
1.3001	0.34868
1.31039	0.344988
1.32062	0.341171
1.33081	0.33723
1.34096	0.333167
1.35105	0.328981
1.36109	0.324673
1.37108	0.320244
1.38101	0.315695
1.39089	0.311026
1.40071	0.306237
1.41047	0.301331
1.42017	0.296306
1.42981	0.291165
1.43939	0.285907
1.4489	0.280534
1.45835	0.275046
1.46773	0.269444
1.47704	0.263729
1.48628	0.257902
1.49546	0.251964
1.50455	0.245915
1.51358	0.239756
1.52253	0.233489
1.5314	0.227114
1.5402	0.220631
1.54891	0.214044
1.55755	0.207351
1.5661	0.200554
1.57457	0.193654
1.58296	0.186652
1.59126	0.179549
1.59948	0.172347
1.6076	0.165045
1.61564	0.157646
1.62359	0.15015
1.63145	0.142558
1.63921	0.134872
1.64689	0.127092
1.65446	0.119221
1.66194	0.111258
1.66933	0.103205
1.67661	0.0950635
1.6838	0.0868344
1.69089	0.078519
1.69787	0.0701185
1.70476	0.0616341
1.71154	0.0530671
1.71821	0.0444186
1.72478	0.03569
1.73125	0.0268826
1.73761	0.0179975
1.74386	0.00903625
1.75	0
1.76087	0
1.77174	0
1.78261	0
1.79348	0
1.80435	0
1.81522	0
1.82609	0
1.83696	0
1.84783	0
1.8587	0
1.86957	0
1.88043	0
1.8913	0
1.90217	0
1.91304	0
1.92391	0
1.93478	0
1.94565	0
1.95652	0
1.96739	0
1.97826	0
1.98913	0
2	0
2.01087	0
2.02174	0
2.03261	0
2.04348	0
2.05435	0
2.06522	0
2.07609	0
2.08696	0
2.09783	0
2.1087	0
2.11957	0
2.13043	0
2.1413	0
2.15217	0
2.16304	0
2.17391	0
2.18478	0
2.19565	0
2.20652	0
2.21739	0
2.22826	0
2.23913	0
2.25	0
2.26087	0
2.27174	0
2.28261	0
2.29348	0
2.30435	0
2.31522	0
2.32609	0
2.33696	0
2.34783	0
2.3587	0
2.36957	0
2.38043	0
2.3913	0
2.40217	0
2.41304	0
2.42391	0
2.43478	0
2.44565	0
2.45652	0
2.46739	0
2.47826	0
2.48913	0
2.5	0
2.51087	0
2.52174	0
2.53261	0
2.54348	0
2.55435	0
2.56522	0
2.57609	0
2.58696	0
2.59783	0
2.6087	0
2.61957	0
2.63043	0
2.6413	0
2.65217	0
2.66304	0
2.67391	0
2.68478	0
2.69565	0
2.70652	0
2.71739	0
2.72826	0
2.73913	0
2.75	0
2.76087	0
2.77174	0
2.78261	0
2.79348	0
2.80435	0
2.81522	0
2.82609	0
2.83696	0
2.84783	0
2.8587	0
2.86957	0
2.88043	0
2.8913	0
2.90217	0
2.91304	0
2.92391	0
2.93478	0
2.94565	0
2.95652	0
2.96739	0
2.97826	0
2.98913	0
3	0
0	0.0108696
0.407333	0.407333
0.414667	0.407333
0.422	0.407333
0.429333	0.407333
0.436667	0.407333
0.444	0.407333
0.451333	0.407333
0.458667	0.407333
0.466	0.407333
0.473333	0.407333
0.480667	0.407333
0.488	0.407333
0.495333	0.407333
0.502667	0.407333
0.51	0.407333
0.517333	0.407333
0.524667	0.407333
0.532	0.407333
0.539333	0.407333
0.546667	0.407333
0.554	0.407333
0.561333	0.407333
0.568667	0.407333
0.576	0.407333
0.583333	0.407333
0.590667	0.407333
0.598	0.407333
0.605333	0.407333
0.612667	0.407333
0.62	0.407333
0.627333	0.407333
0.634667	0.407333
0.642	0.407333
0.649333	0.407333
0.656667	0.407333
0.664	0.407333
0.671333	0.407333
0.678667	0.407333
0.686	0.407333
0.693333	0.407333
0.700667	0.407333
0.708	0.407333
0.715333	0.407333
0.722667	0.407333
0.73	0.407333
0.737333	0.407333
0.744667	0.407333
0.752	0.407333
0.759333	0.407333
0.766667	0.407333
0.774	0.407333
0.781333	0.407333
0.788667	0.407333
0.796	0.407333
0.803333	0.407333
0.810667	0.407333
0.818	0.407333
0.825333	0.407333
0.832667	0.407333
0.84	0.407333
0.847333	0.407333
0.854667	0.407333
0.862	0.407333
0.869333	0.407333
0.876667	0.407333
0.884	0.407333
0.891333	0.407333
0.898667	0.407333
0.906	0.407333
0.913333	0.407333
0.920667	0.407333
0.928	0.407333
0.935333	0.407333
0.942667	0.407333
0.95	0.407333
0.957333	0.407333
0.964667	0.407333
0.972	0.407333
0.979333	0.407333
0.986667	0.407333
0.994	0.407333
1.00133	0.407333
1.00867	0.407333
1.016	0.407333
1.02333	0.407333
1.03067	0.407333
1.038	0.407333
1.04533	0.407333
1.05267	0.407333
1.06	0.407333
1.06733	0.407333
1.07467	0.407333
1.082	0.407333
1.08933	0.407333
1.09667	0.407333
1.104	0.407333
1.11133	0.407333
1.11867	0.407333
1.126	0.407333
1.13333	0.407333
1.14067	0.407333
1.148	0.407333
1.15533	0.407333
1.16267	0.407333
1.17	0.407333
1.17733	0.407333
1.18467	0.407333
1.192	0.407333
1.19933	0.407333
1.20667	0.407333
1.214	0.407333
1.22133	0.407333
1.22867	0.407333
1.236	0.407333
1.24333	0.407333
1.25067	0.407333
1.258	0.407333
1.26533	0.407333
1.27267	0.407333
1.28	0.407333
1.28733	0.407333
1.29467	0.407333
1.302	0.407333
1.30933	0.407333
1.31667	0.407333
1.324	0.407333
1.33133	0.407333
1.33867	0.407333
1.346	0.407333
1.35333	0.407333
1.36067	0.407333
1.368	0.407333
1.37533	0.407333
1.38267	0.407333
1.39	0.407333
1.39733	0.407333
1.40467	0.407333
1.412	0.407333
1.41933	0.407333
1.42667	0.407333
1.434	0.407333
1.44133	0.407333
1.44867	0.407333
1.456	0.407333
1.46333	0.407333
1.47067	0.407333
1.478	0.407333
1.48533	0.407333
1.49267	0.407333
1.5	0.407333
1.50733	0.407333
1.51467	0.407333
1.522	0.407333
1.52933	0.407333
1.53667	0.407333
1.544	0.407333
1.55133	0.407333
1.55867	0.407333
1.566	0.407333
1.57333	0.407333
1.58067	0.407333
1.588	0.407333
1.59533	0.407333
1.60267	0.407333
1.61	0.407333
1.61733	0.407333
1.62467	0.407333
1.632	0.407333
1.63933	0.407333
1.64667	0.407333
1.654	0.407333
1.66133	0.407333
1.66867	0.407333
1.676	0.407333
1.68333	0.407333
1.69067	0.407333
1.698	0.407333
1.70533	0.407333
1.71267	0.407333
1.72	0.407333
1.72733	0.407333
1.73467	0.407333
1.742	0.407333
1.74933	0.407333
1.75667	0.407333
1.764	0.407333
1.77133	0.407333
1.77867	0.407333
1.786	0.407333
1.79333	0.407333
1.80067	0.407333
1.808	0.407333
1.81533	0.407333
1.82267	0.407333
1.83	0.407333
1.83733	0.407333
1.84467	0.407333
1.852	0.407333
1.85933	0.407333
1.86667	0.407333
1.874	0.407333
1.88133	0.407333
1.88867	0.407333
1.896	0.407333
1.90333	0.407333
1.91067	0.407333
1.918	0.407333
1.92533	0.407333
1.93267	0.407333
1.94	0.407333
1.94733	0.407333
1.95467	0.407333
1.962	0.407333
1.96933	0.407333
1.97667	0.407333
1.984	0.407333
1.99133	0.407333
1.99867	0.407333
2.006	0.407333
2.01333	0.407333
2.02067	0.407333
2.028	0.407333
2.03533	0.407333
2.04267	0.407333
2.05	0.407333
2.05733	0.407333
2.06467	0.407333
2.072	0.407333
2.07933	0.407333
2.08667	0.407333
2.094	0.407333
2.10133	0.407333
2.10867	0.407333
2.116	0.407333
2.12333	0.407333
2.13067	0.407333
2.138	0.407333
2.14533	0.407333
2.15267	0.407333
2.16	0.407333
2.16733	0.407333
2.17467	0.407333
2.182	0.407333
2.18933	0.407333
2.19667	0.407333
2.204	0.407333
2.21133	0.407333
2.21867	0.407333
2.226	0.407333
2.23333	0.407333
2.24067	0.407333
2.248	0.407333
2.25533	0.407333
2.26267	0.407333
2.27	0.407333
2.27733	0.407333
2.28467	0.407333
2.292	0.407333
2.29933	0.407333
2.30667	0.407333
2.314	0.407333
2.32133	0.407333
2.32867	0.407333
2.336	0.407333
2.34333	0.407333
2.35067	0.407333
2.358	0.407333
2.36533	0.407333
2.37267	0.407333
2.38	0.407333
2.38733	0.407333
2.39467	0.407333
2.402	0.407333
2.40933	0.407333
2.41667	0.407333
2.424	0.407333
2.43133	0.407333
2.43867	0.407333
2.446	0.407333
2.45333	0.407333
2.46067	0.407333
2.468	0.407333
2.47533	0.407333
2.48267	0.407333
2.49	0.407333
2.49733	0.407333
2.50467	0.407333
2.512	0.407333
2.51933	0.407333
2.52667	0.407333
2.534	0.407333
2.54133	0.407333
2.54867	0.407333
2.556	0.407333
2.56333	0.407333
2.57067	0.407333
2.578	0.407333
2.58533	0.407333
2.59267	0.407333
3	0.0108696
0	0.0217391
0.407333	0.414667
0.414667	0.414667
0.422	0.414667
0.429333	0.414667
0.436667	0.414667
0.444	0.414667
0.451333	0.414667
0.458667	0.414667
0.466	0.414667
0.473333	0.414667
0.480667	0.414667
0.488	0.414667
0.495333	0.414667
0.502667	0.414667
0.51	0.414667
0.517333	0.414667
0.524667	0.414667
0.532	0.414667
0.539333	0.414667
0.546667	0.414667
0.554	0.414667
0.561333	0.414667
0.568667	0.414667
0.576	0.414667
0.583333	0.414667
0.590667	0.414667
0.598	0.414667
0.605333	0.414667
0.612667	0.414667
0.62	0.414667
0.627333	0.414667
0.634667	0.414667
0.642	0.414667
0.649333	0.414667
0.656667	0.414667
0.664	0.414667
0.671333	0.414667
0.678667	0.414667
0.686	0.414667
0.693333	0.414667
0.700667	0.414667
0.708	0.414667
0.715333	0.414667
0.722667	0.414667
0.73	0.414667
0.737333	0.414667
0.744667	0.414667
0.752	0.414667
0.759333	0.414667
0.766667	0.414667
0.774	0.414667
0.781333	0.414667
0.788667	0.414667
0.796	0.414667
0.803333	0.414667
0.810667	0.414667
0.818	0.414667
0.825333	0.414667
0.832667	0.414667
0.84	0.414667
0.847333	0.414667
0.854667	0.414667
0.862	0.414667
0.869333	0.414667
0.876667	0.414667
0.884	0.414667
0.891333	0.414667
0.898667	0.414667
0.906	0.414667
0.913333	0.414667
0.920667	0.414667
0.928	0.414667
0.935333	0.414667
0.942667	0.414667
0.95	0.414667
0.957333	0.414667
0.964667	0.414667
0.972	0.414667
0.979333	0.414667
0.986667	0.414667
0.994	0.414667
1.00133	0.414667
1.00867	0.414667
1.016	0.414667
1.02333	0.414667
1.03067	0.414667
1.038	0.414667
1.04533	0.414667
1.05267	0.414667
1.06	0.414667
1.06733	0.414667
1.07467	0.414667
1.082	0.414667
1.08933	0.414667
1.09667	0.414667
1.104	0.414667
1.11133	0.414667
1.11867	0.414667
1.126	0.414667
1.13333	0.414667
1.14067	0.414667
1.148	0.414667
1.15533	0.414667
1.16267	0.414667
1.17	0.414667
1.17733	0.414667
1.18467	0.414667
1.192	0.414667
1.19933	0.414667
1.20667	0.414667
1.214	0.414667
1.22133	0.414667
1.22867	0.414667
1.236	0.414667
1.24333	0.414667
1.25067	0.414667
1.258	0.414667
1.26533	0.414667
1.27267	0.414667
1.28	0.414667
1.28733	0.414667
1.29467	0.414667
1.302	0.414667
1.30933	0.414667
1.31667	0.414667
1.324	0.414667
1.33133	0.414667
1.33867	0.414667
1.346	0.414667
1.35333	0.414667
1.36067	0.414667
1.368	0.414667
1.37533	0.414667
1.38267	0.414667
1.39	0.414667
1.39733	0.414667
1.40467	0.414667
1.412	0.414667
1.41933	0.414667
1.42667	0.414667
1.434	0.414667
1.44133	0.414667
1.44867	0.414667
1.456	0.414667
1.46333	0.414667
1.47067	0.414667
1.478	0.414667
1.48533	0.414667
1.49267	0.414667
1.5	0.414667
1.50733	0.414667
1.51467	0.414667
1.522	0.414667
1.52933	0.414667
1.53667	0.414667
1.544	0.414667
1.55133	0.414667
1.55867	0.414667
1.566	0.414667
1.57333	0.414667
1.58067	0.414667
1.588	0.414667
1.59533	0.414667
1.60267	0.414667
1.61	0.414667
1.61733	0.414667
1.62467	0.414667
1.632	0.414667
1.63933	0.414667
1.64667	0.414667
1.654	0.414667
1.66133	0.414667
1.66867	0.414667
1.676	0.414667
1.68333	0.414667
1.69067	0.414667
1.698	0.414667
1.70533	0.414667
1.71267	0.414667
1.72	0.414667
1.72733	0.414667
1.73467	0.414667
1.742	0.414667
1.74933	0.414667
1.75667	0.414667
1.764	0.414667
1.77133	0.414667
1.77867	0.414667
1.786	0.414667
1.79333	0.414667
1.80067	0.414667
1.808	0.414667
1.81533	0.414667
1.82267	0.414667
1.83	0.414667
1.83733	0.414667
1.84467	0.414667
1.852	0.414667
1.85933	0.414667
1.86667	0.414667
1.874	0.414667
1.88133	0.414667
1.88867	0.414667
1.896	0.414667
1.90333	0.414667
1.91067	0.414667
1.918	0.414667
1.92533	0.414667
1.93267	0.414667
1.94	0.414667
1.94733	0.414667
1.95467	0.414667
1.962	0.414667
1.96933	0.414667
1.97667	0.414667
1.984	0.414667
1.99133	0.414667
1.99867	0.414667
2.006	0.414667
2.01333	0.414667
2.02067	0.414667
2.028	0.414667
2.03533	0.414667
2.04267	0.414667
2.05	0.414667
2.05733	0.414667
2.06467	0.414667
2.072	0.414667
2.07933	0.414667
2.08667	0.414667
2.094	0.414667
2.10133	0.414667
2.10867	0.414667
2.116	0.414667
2.12333	0.414667
2.13067	0.414667
2.138	0.414667
2.14533	0.414667
2.15267	0.414667
2.16	0.414667
2.16733	0.414667
2.17467	0.414667
2.182	0.414667
2.18933	0.414667
2.19667	0.414667
2.204	0.414667
2.21133	0.414667
2.21867	0.414667
2.226	0.414667
2.23333	0.414667
2.24067	0.414667
2.248	0.414667
2.25533	0.414667
2.26267	0.414667
2.27	0.414667
2.27733	0.414667
2.28467	0.414667
2.292	0.414667
2.29933	0.414667
2.30667	0.414667
2.314	0.414667
2.32133	0.414667
2.32867	0.414667
2.336	0.414667
2.34333	0.414667
2.35067	0.414667
2.358	0.414667
2.36533	0.414667
2.37267	0.414667
2.38	0.414667
2.38733	0.414667
2.39467	0.414667
2.402	0.414667
2.40933	0.414667
2.41667	0.414667
2.424	0.414667
2.43133	0.414667
2.43867	0.414667
2.446	0.414667
2.45333	0.414667
2.46067	0.414667
2.468	0.414667
2.47533	0.414667
2.48267	0.414667
2.49	0.414667
2.49733	0.414667
2.50467	0.414667
2.512	0.414667
2.51933	0.414667
2.52667	0.414667
2.534	0.414667
2.54133	0.414667
2.54867	0.414667
2.556	0.414667
2.56333	0.414667
2.57067	0.414667
2.578	0.414667
2.58533	0.414667
2.59267	0.414667
3	0.0217391
0	0.0326087
0.407333	0.422
0.414667	0.422
0.422	0.422
0.429333	0.422
0.436667	0.422
0.444	0.422
0.451333	0.422
0.458667	0.422
0.466	0.422
0.473333	0.422
0.480667	0.422
0.488	0.422
0.495333	0.422
0.502667	0.422
0.51	0.422
0.517333	0.422
0.524667	0.422
0.532	0.422
0.539333	0.422
0.546667	0.422
0.554	0.422
0.561333	0.422
0.568667	0.422
0.576	0.422
0.583333	0.422
0.590667	0.422
0.598	0.422
0.605333	0.422
0.612667	0.422
0.62	0.422
0.627333	0.422
0.634667	0.422
0.642	0.422
0.649333	0.422
0.656667	0.422
0.664	0.422
0.671333	0.422
0.678667	0.422
0.686	0.422
0.693333	0.422
0.700667	0.422
0.708	0.422
0.715333	0.422
0.722667	0.422
0.73	0.422
0.737333	0.422
0.744667	0.422
0.752	0.422
0.759333	0.422
0.766667	0.422
0.774	0.422
0.781333	0.422
0.788667	0.422
0.796	0.422
0.803333	0.422
0.810667	0.422
0.818	0.422
0.825333	0.422
0.832667	0.422
0.84	0.422
0.847333	0.422
0.854667	0.422
0.862	0.422
0.869333	0.422
0.876667	0.422
0.884	0.422
0.891333	0.422
0.898667	0.422
0.906	0.422
0.913333	0.422
0.920667	0.422
0.928	0.422
0.935333	0.422
0.942667	0.422
0.95	0.422
0.957333	0.422
0.964667	0.422
0.972	0.422
0.979333	0.422
0.986667	0.422
0.994	0.422
1.00133	0.422
1.00867	0.422
1.016	0.422
1.02333	0.422
1.03067	0.422
1.038	0.422
1.04533	0.422
1.05267	0.422
1.06	0.422
1.06733	0.422
1.07467	0.422
1.082	0.422
1.08933	0.422
1.09667	0.422
1.104	0.422
1.11133	0.422
1.11867	0.422
1.126	0.422
1.13333	0.422
1.14067	0.422
1.148	0.422
1.15533	0.422
1.16267	0.422
1.17	0.422
1.17733	0.422
1.18467	0.422
1.192	0.422
1.19933	0.422
1.20667	0.422
1.214	0.422
1.22133	0.422
1.22867	0.422
1.236	0.422
1.24333	0.422
1.25067	0.422
1.258	0.422
1.26533	0.422
1.27267	0.422
1.28	0.422
1.28733	0.422
1.29467	0.422
1.302	0.422
1.30933	0.422
1.31667	0.422
1.324	0.422
1.33133	0.422
1.33867	0.422
1.346	0.422
1.35333	0.422
1.36067	0.422
1.368	0.422
1.37533	0.422
1.38267	0.422
1.39	0.422
1.39733	0.422
1.40467	0.422
1.412	0.422
1.41933	0.422
1.42667	0.422
1.434	0.422
1.44133	0.422
1.44867	0.422
1.456	0.422
1.46333	0.422
1.47067	0.422
1.478	0.422
1.48533	0.422
1.49267	0.422
1.5	0.422
1.50733	0.422
1.51467	0.422
1.522	0.422
1.52933	0.422
1.53667	0.422
1.544	0.422
1.55133	0.422
1.55867	0.422
1.566	0.422
1.57333	0.422
1.58067	0.422
1.588	0.422
1.59533	0.422
1.60267	0.422
1.61	0.422
1.61733	0.422
1.62467	0.422
1.632	0.422
1.63933	0.422
1.64667	0.422
1.654	0.422
1.66133	0.422
1.66867	0.422
1.676	0.422
1.68333	0.422
1.69067	0.422
1.698	0.422
1.70533	0.422
1.71267	0.422
1.72	0.422
1.72733	0.422
1.73467	0.422
1.742	0.422
1.74933	0.422
1.75667	0.422
1.764	0.422
1.77133	0.422
1.77867	0.422
1.786	0.422
1.79333	0.422
1.80067	0.422
1.808	0.422
1.81533	0.422
1.82267	0.422
1.83	0.422
1.83733	0.422
1.84467	0.422
1.852	0.422
1.85933	0.422
1.86667	0.422
1.874	0.422
1.88133	0.422
1.88867	0.422
1.896	0.422
1.90333	0.422
1.91067	0.422
1.918	0.422
1.92533	0.422
1.93267	0.422
1.94	0.422
1.94733	0.422
1.95467	0.422
1.962	0.422
1.96933	0.422
1.97667	0.422
1.984	0.422
1.99133	0.422
1.99867	0.422
2.006	0.422
2.01333	0.422
2.02067	0.422
2.028	0.422
2.03533	0.422
2.04267	0.422
2.05	0.422
2.05733	0.422
2.06467	0.422
2.072	0.422
2.07933	0.422
2.08667	0.422
2.094	0.422
2.10133	0.422
2.10867	0.422
2.116	0.422
2.12333	0.422
2.13067	0.422
2.138	0.422
2.14533	0.422
2.15267	0.422
2.16	0.422
2.16733	0.422
2.17467	0.422
2.182	0.422
2.18933	0.422
2.19667	0.422
2.204	0.422
2.21133	0.422
2.21867	0.422
2.226	0.422
2.23333	0.422
2.24067	0.422
2.248	0.422
2.25533	0.422
2.26267	0.422
2.27	0.422
2.27733	0.422
2.28467	0.422
2.292	0.422
2.29933	0.422
2.30667	0.422
2.314	0.422
2.32133	0.422
2.32867	0.422
2.336	0.422
2.34333	0.422
2.35067	0.422
2.358	0.422
2.36533	0.422
2.37267	0.422
2.38	0.422
2.38733	0.422
2.39467	0.422
2.402	0.422
2.40933	0.422
2.41667	0.422
2.424	0.422
2.43133	0.422
2.43867	0.422
2.446	0.422
2.45333	0.422
2.46067	0.422
2.468	0.422
2.47533	0.422
2.48267	0.422
2.49	0.422
2.49733	0.422
2.50467	0.422
2.512	0.422
2.51933	0.422
2.52667	0.422
2.534	0.422
2.54133	0.422
2.54867	0.422
2.556	0.422
2.56333	0.422
2.57067	0.422
2.578	0.422
2.58533	0.422
2.59267	0.422
3	0.0326087
0	0.0434783
0.407333	0.429333
0.414667	0.429333
0.422	0.429333
0.429333	0.429333
0.436667	0.429333
0.444	0.429333
0.451333	0.429333
0.458667	0.429333
0.466	0.429333
0.473333	0.429333
0.480667	0.429333
0.488	0.429333
0.495333	0.429333
0.502667	0.429333
0.51	0.429333
0.517333	0.429333
0.524667	0.429333
0.532	0.429333
0.539333	0.429333
0.546667	0.429333
0.554	0.429333
0.561333	0.429333
0.568667	0.429333
0.576	0.429333
0.583333	0.429333
0.590667	0.429333
0.598	0.429333
0.605333	0.429333
0.612667	0.429333
0.62	0.429333
0.627333	0.429333
0.634667	0.429333
0.642	0.429333
0.649333	0.429333
0.656667	0.429333
0.664	0.429333
0.671333	0.429333
0.678667	0.429333
0.686	0.429333
0.693333	0.429333
0.700667	0.429333
0.708	0.429333
0.715333	0.429333
0.722667	0.429333
0.73	0.429333
0.737333	0.429333
0.744667	0.429333
0.752	0.429333
0.759333	0.429333
0.766667	0.429333
0.774	0.429333
0.781333	0.429333
0.788667	0.429333
0.796	0.429333
0.803333	0.429333
0.810667	0.429333
0.818	0.429333
0.825333	0.429333
0.832667	0.429333
0.84	0.429333
0.847333	0.429333
0.854667	0.429333
0.862	0.429333
0.869333	0.429333
0.876667	0.429333
0.884	0.429333
0.891333	0.429333
0.898667	0.429333
0.906	0.429333
0.913333	0.429333
0.920667	0.429333
0.928	0.429333
0.935333	0.429333
0.942667	0.429333
0.95	0.429333
0.957333	0.429333
0.964667	0.429333
0.972	0.429333
0.979333	0.429333
0.986667	0.429333
0.994	0.429333
1.00133	0.429333
1.00867	0.429333
1.016	0.429333
1.02333	0.429333
1.03067	0.429333
1.038	0.429333
1.04533	0.429333
1.05267	0.429333
1.06	0.429333
1.06733	0.429333
1.07467	0.429333
1.082	0.429333
1.08933	0.429333
1.09667	0.429333
1.104	0.429333
1.11133	0.429333
1.11867	0.429333
1.126	0.429333
1.13333	0.429333
1.14067	0.429333
1.148	0.429333
1.15533	0.429333
1.16267	0.429333
1.17	0.429333
1.17733	0.429333
1.18467	0.429333
1.192	0.429333
1.19933	0.429333
1.20667	0.429333
1.214	0.429333
1.22133	0.429333
1.22867	0.429333
1.236	0.429333
1.24333	0.429333
1.25067	0.429333
1.258	0.429333
1.26533	0.429333
1.27267	0.429333
1.28	0.429333
1.28733	0.429333
1.29467	0.429333
1.302	0.429333
1.30933	0.429333
1.31667	0.429333
1.324	0.429333
1.33133	0.429333
1.33867	0.429333
1.346	0.429333
1.35333	0.429333
1.36067	0.429333
1.368	0.429333
1.37533	0.429333
1.38267	0.429333
1.39	0.429333
1.39733	0.429333
1.40467	0.429333
1.412	0.429333
1.41933	0.429333
1.42667	0.429333
1.434	0.429333
1.44133	0.429333
1.44867	0.429333
1.456	0.429333
1.46333	0.429333
1.47067	0.429333
1.478	0.429333
1.48533	0.429333
1.49267	0.429333
1.5	0.429333
1.50733	0.429333
1.51467	0.429333
1.522	0.429333
1.52933	0.429333
1.53667	0.429333
1.544	0.429333
1.55133	0.429333
1.55867	0.429333
1.566	0.429333
1.57333	0.429333
1.58067	0.429333
1.588	0.429333
1.59533	0.429333
1.60267	0.429333
1.61	0.429333
1.61733	0.429333
1.62467	0.429333
1.632	0.429333
1.63933	0.429333
1.64667	0.429333
1.654	0.429333
1.66133	0.429333
1.66867	0.429333
1.676	0.429333
1.68333	0.429333
1.69067	0.429333
1.698	0.429333
1.70533	0.429333
1.71267	0.429333
1.72	0.429333
1.72733	0.429333
1.73467	0.429333
1.742	0.429333
1.74933	0.429333
1.75667	0.429333
1.764	0.429333
1.77133	0.429333
1.77867	0.429333
1.786	0.429333
1.79333	0.429333
1.80067	0.429333
1.808	0.429333
1.81533	0.429333
1.82267	0.429333
1.83	0.429333
1.83733	0.429333
1.84467	0.429333
1.852	0.429333
1.85933	0.429333
1.86667	0.429333
1.874	0.429333
1.88133	0.429333
1.88867	0.429333
1.896	0.429333
1.90333	0.429333
1.91067	0.429333
1.918	0.429333
1.92533	0.429333
1.93267	0.429333
1.94	0.429333
1.94733	0.429333
1.95467	0.429333
1.962	0.429333
1.96933	0.429333
1.97667	0.429333
1.984	0.429333
1.99133	0.429333
1.99867	0.429333
2.006	0.429333
2.01333	0.429333
2.02067	0.429333
2.028	0.429333
2.03533	0.429333
2.04267	0.429333
2.05	0.429333
2.05733	0.429333
2.06467	0.429333
2.072	0.429333
2.07933	0.429333
2.08667	0.429333
2.094	0.429333
2.10133	0.429333
2.10867	0.429333
2.116	0.429333
2.12333	0.429333
2.13067	0.429333
2.138	0.429333
2.14533	0.429333
2.15267	0.429333
2.16	0.429333
2.16733	0.429333
2.17467	0.429333
2.182	0.429333
2.18933	0.429333
2.19667	0.429333
2.204	0.429333
2.21133	0.429333
2.21867	0.429333
2.226	0.429333
2.23333	0.429333
2.24067	0.429333
2.248	0.429333
2.25533	0.429333
2.26267	0.429333
2.27	0.429333
2.27733	0.429333
2.28467	0.429333
2.292	0.429333
2.29933	0.429333
2.30667	0.429333
2.314	0.429333
2.32133	0.429333
2.32867	0.429333
2.336	0.429333
2.34333	0.429333
2.35067	0.429333
2.358	0.429333
2.36533	0.429333
2.37267	0.429333
2.38	0.429333
2.38733	0.429333
2.39467	0.429333
2.402	0.429333
2.40933	0.429333
2.41667	0.429333
2.424	0.429333
2.43133	0.429333
2.43867	0.429333
2.446	0.429333
2.45333	0.429333
2.46067	0.429333
2.468	0.429333
2.47533	0.429333
2.48267	0.429333
2.49	0.429333
2.49733	0.429333
2.50467	0.429333
2.512	0.429333
2.51933	0.429333
2.52667	0.429333
2.534	0.429333
2.54133	0.429333
2.54867	0.429333
2.556	0.429333
2.56333	0.429333
2.57067	0.429333
2.578	0.429333
2.58533	0.429333
2.59267	0.429333
3	0.0434783
0	0.0543478
0.407333	0.436667
0.414667	0.436667
0.422	0.436667
0.429333	0.436667
0.436667	0.436667
0.444	0.436667
0.451333	0.436667
0.458667	0.436667
0.466	0.436667
0.473333	0.436667
0.480667	0.436667
0.488	0.436667
0.495333	0.436667
0.502667	0.436667
0.51	0.436667
0.517333	0.436667
0.524667	0.436667
0.532	0.436667
0.539333	0.436667
0.546667	0.436667
0.554	0.436667
0.561333	0.436667
0.568667	0.436667
0.576	0.436667
0.583333	0.436667
0.590667	0.436667
0.598	0.436667
0.605333	0.436667
0.612667	0.436667
0.62	0.436667
0.627333	0.436667
0.634667	0.436667
0.642	0.436667
0.649333	0.436667
0.656667	0.436667
0.664	0.436667
0.671333	0.436667
0.678667	0.436667
0.686	0.436667
0.693333	0.436667
0.700667	0.436667
0.708	0.436667
0.715333	0.436667
0.722667	0.436667
0.73	0.436667
0.737333	0.436667
0.744667	0.436667
0.752	0.436667
0.759333	0.436667
0.766667	0.436667
0.774	0.436667
0.781333	0.436667
0.788667	0.436667
0.796	0.436667
0.803333	0.436667
0.810667	0.436667
0.818	0.436667
0.825333	0.436667
0.832667	0.436667
0.84	0.436667
0.847333	0.436667
0.854667	0.436667
0.862	0.436667
0.869333	0.436667
0.876667	0.436667
0.884	0.436667
0.891333	0.436667
0.898667	0.436667
0.906	0.436667
0.913333	0.436667
0.920667	0.436667
0.928	0.436667
0.935333	0.436667
0.942667	0.436667
0.95	0.436667
0.957333	0.436667
0.964667	0.436667
0.972	0.436667
0.979333	0.436667
0.986667	0.436667
0.994	0.436667
1.00133	0.436667
1.00867	0.436667
1.016	0.436667
1.02333	0.436667
1.03067	0.436667
1.038	0.436667
1.04533	0.436667
1.05267	0.436667
1.06	0.436667
1.06733	0.436667
1.07467	0.436667
1.082	0.436667
1.08933	0.436667
1.09667	0.436667
1.104	0.436667
1.11133	0.436667
1.11867	0.436667
1.126	0.436667
1.13333	0.436667
1.14067	0.436667
1.148	0.436667
1.15533	0.436667
1.16267	0.436667
1.17	0.436667
1.17733	0.436667
1.18467	0.436667
1.192	0.436667
1.19933	0.436667
1.20667	0.436667
1.214	0.436667
1.22133	0.436667
1.22867	0.436667
1.236	0.436667
1.24333	0.436667
1.25067	0.436667
1.258	0.436667
1.26533	0.436667
1.27267	0.436667
1.28	0.436667
1.28733	0.436667
1.29467	0.436667
1.302	0.436667
1.30933	0.436667
1.31667	0.436667
1.324	0.436667
1.33133	0.436667
1.33867	0.436667
1.346	0.436667
1.35333	0.436667
1.36067	0.436667
1.368	0.436667
1.37533	0.436667
1.38267	0.436667
1.39	0.436667
1.39733	0.436667
1.40467	0.436667
1.412	0.436667
1.41933	0.436667
1.42667	0.436667
1.434	0.436667
1.44133	0.436667
1.44867	0.436667
1.456	0.436667
1.46333	0.436667
1.47067	0.436667
1.478	0.436667
1.48533	0.436667
1.49267	0.436667
1.5	0.436667
1.50733	0.436667
1.51467	0.436667
1.522	0.436667
1.52933	0.436667
1.53667	0.436667
1.544	0.436667
1.55133	0.436667
1.55867	0.436667
1.566	0.436667
1.57333	0.436667
1.58067	0.436667
1.588	0.436667
1.59533	0.436667
1.60267	0.436667
1.61	0.436667
1.61733	0.436667
1.62467	0.436667
1.632	0.436667
1.63933	0.436667
1.64667	0.436667
1.654	0.436667
1.66133	0.436667
1.66867	0.436667
1.676	0.436667
1.68333	0.436667
1.69067	0.436667
1.698	0.436667
1.70533	0.436667
1.71267	0.436667
1.72	0.436667
1.72733	0.436667
1.73467	0.436667
1.742	0.436667
1.74933	0.436667
1.75667	0.436667
1.764	0.436667
1.77133	0.436667
1.77867	0.436667
1.786	0.436667
1.79333	0.436667
1.80067	0.436667
1.808	0.436667
1.81533	0.436667
1.82267	0.436667
1.83	0.436667
1.83733	0.436667
1.84467	0.436667
1.852	0.436667
1.85933	0.436667
1.86667	0.436667
1.874	0.436667
1.88133	0.436667
1.88867	0.436667
1.896	0.436667
1.90333	0.436667
1.91067	0.436667
1.918	0.436667
1.92533	0.436667
1.93267	0.436667
1.94	0.436667
1.94733	0.436667
1.95467	0.436667
1.962	0.436667
1.96933	0.436667
1.97667	0.436667
1.984	0.436667
1.99133	0.436667
1.99867	0.436667
2.006	0.436667
2.01333	0.436667
2.02067	0.436667
2.028	0.436667
2.03533	0.436667
2.04267	0.436667
2.05	0.436667
2.05733	0.436667
2.06467	0.436667
2.072	0.436667
2.07933	0.436667
2.08667	0.436667
2.094	0.436667
2.10133	0.436667
2.10867	0.436667
2.116	0.436667
2.12333	0.436667
2.13067	0.436667
2.138	0.436667
2.14533	0.436667
2.15267	0.436667
2.16	0.436667
2.16733	0.436667
2.17467	0.436667
2.182	0.436667
2.18933	0.436667
2.19667	0.436667
2.204	0.436667
2.21133	0.436667
2.21867	0.436667
2.226	0.436667
2.23333	0.436667
2.24067	0.436667
2.248	0.436667
2.25533	0.436667
2.26267	0.436667
2.27	0.436667
2.27733	0.436667
2.28467	0.436667
2.292	0.436667
2.29933	0.436667
2.30667	0.436667
2.314	0.436667
2.32133	0.436667
2.32867	0.436667
2.336	0.436667
2.34333	0.436667
2.35067	0.436667
2.358	0.436667
2.36533	0.436667
2.37267	0.436667
2.38	0.436667
2.38733	0.436667
2.39467	0.436667
2.402	0.436667
2.40933	0.436667
2.41667	0.436667
2.424	0.436667
2.43133	0.436667
2.43867	0.436667
2.446	0.436667
2.45333	0.436667
2.46067	0.436667
2.468	0.436667
2.47533	0.436667
2.48267	0.436667
2.49	0.436667
2.49733	0.436667
2.50467	0.436667
2.512	0.436667
2.51933	0.436667
2.52667	0.436667
2.534	0.436667
2.54133	0.436667
2.54867	0.436667
2.556	0.436667
2.56333	0.436667
2.57067	0.436667
2.578	0.436667
2.58533	0.436667
2.59267	0.436667
3	0.0543478
0	0.0652174
0.407333	0.444
0.414667	0.444
0.422	0.444
0.429333	0.444
0.436667	0.444
0.444	0.444
0.451333	0.444
0.458667	0.444
0.466	0.444
0.473333	0.444
0.480667	0.444
0.488	0.444
0.495333	0.444
0.502667	0.444
0.51	0.444
0.517333	0.444
0.524667	0.444
0.532	0.444
0.539333	0.444
0.546667	0.444
0.554	0.444
0.561333	0.444
0.568667	0.444
0.576	0.444
0.583333	0.444
0.590667	0.444
0.598	0.444
0.605333	0.444
0.612667	0.444
0.62	0.444
0.627333	0.444
0.634667	0.444
0.642	0.444
0.649333	0.444
0.656667	0.444
0.664	0.444
0.671333	0.444
0.678667	0.444
0.686	0.444
0.693333	0.444
0.700667	0.444
0.708	0.444
0.715333	0.444
0.722667	0.444
0.73	0.444
0.737333	0.444
0.744667	0.444
0.752	0.444
0.759333	0.444
0.766667	0.444
0.774	0.444
0.781333	0.444
0.788667	0.444
0.796	0.444
0.803333	0.444
0.810667	0.444
0.818	0.444
0.825333	0.444
0.832667	0.444
0.84	0.444
0.847333	0.444
0.854667	0.444
0.862	0.444
0.869333	0.444
0.876667	0.444
0.884	0.444
0.891333	0.444
0.898667	0.444
0.906	0.444
0.913333	0.444
0.920667	0.444
0.928	0.444
0.935333	0.444
0.942667	0.444
0.95	0.444
0.957333	0.444
0.964667	0.444
0.972	0.444
0.979333	0.444
0.986667	0.444
0.994	0.444
1.00133	0.444
1.00867	0.444
1.016	0.444
1.02333	0.444
1.03067	0.444
1.038	0.444
1.04533	0.444
1.05267	0.444
1.06	0.444
1.06733	0.444
1.07467	0.444
1.082	0.444
1.08933	0.444
1.09667	0.444
1.104	0.444
1.11133	0.444
1.11867	0.444
1.126	0.444
1.13333	0.444
1.14067	0.444
1.148	0.444
1.15533	0.444
1.16267	0.444
1.17	0.444
1.17733	0.444
1.18467	0.444
1.192	0.444
1.19933	0.444
1.20667	0.444
1.214	0.444
1.22133	0.444
1.22867	0.444
1.236	0.444
1.24333	0.444
1.25067	0.444
1.258	0.444
1.26533	0.444
1.27267	0.444
1.28	0.444
1.28733	0.444
1.29467	0.444
1.302	0.444
1.30933	0.444
1.31667	0.444
1.324	0.444
1.33133	0.444
1.33867	0.444
1.346	0.444
1.35333	0.444
1.36067	0.444
1.368	0.444
1.37533	0.444
1.38267	0.444
1.39	0.444
1.39733	0.444
1.40467	0.444
1.412	0.444
1.41933	0.444
1.42667	0.444
1.434	0.444