Title="Mesh"
Variables="x","y"
Zone i=251, j=51, f=point
0 0
0.004 0
0.008 0
0.012 0
0.016 0
0.02 0
0.024 0
0.028 0
0.032 0
0.036 0
0.04 0
0.044 0
0.048 0
0.052 0
0.056 0
0.06 0
0.064 0
0.068 0
0.072 0
0.076 0
0.08 0
0.084 0
0.088 0
0.092 0
0.096 0
0.1 0
0.104 0
0.108 0
0.112 0
0.116 0
0.12 0
0.124 0
0.128 0
0.132 0
0.136 0
0.14 0
0.144 0
0.148 0
0.152 0
0.156 0
0.16 0
0.164 0
0.168 0
0.172 0
0.176 0
0.18 0
0.184 0
0.188 0
0.192 0
0.196 0
0.2 0
0.204 0.001
0.208 0.002
0.212 0.003
0.216 0.004
0.22 0.005
0.224 0.006
0.228 0.007
0.232 0.008
0.236 0.009
0.24 0.01
0.244 0.011
0.248 0.012
0.252 0.013
0.256 0.014
0.26 0.015
0.264 0.016
0.268 0.017
0.272 0.018
0.276 0.019
0.28 0.02
0.284 0.021
0.288 0.022
0.292 0.023
0.296 0.024
0.3 0.025
0.304 0.026
0.308 0.027
0.312 0.028
0.316 0.029
0.32 0.03
0.324 0.031
0.328 0.032
0.332 0.033
0.336 0.034
0.34 0.035
0.344 0.036
0.348 0.037
0.352 0.038
0.356 0.039
0.36 0.04
0.364 0.041
0.368 0.042
0.372 0.043
0.376 0.044
0.38 0.045
0.384 0.046
0.388 0.047
0.392 0.048
0.396 0.049
0.4 0.05
0.404 0.05
0.408 0.05
0.412 0.05
0.416 0.05
0.42 0.05
0.424 0.05
0.428 0.05
0.432 0.05
0.436 0.05
0.44 0.05
0.444 0.05
0.448 0.05
0.452 0.05
0.456 0.05
0.46 0.05
0.464 0.05
0.468 0.05
0.472 0.05
0.476 0.05
0.48 0.05
0.484 0.05
0.488 0.05
0.492 0.05
0.496 0.05
0.5 0.05
0.504 0.05
0.508 0.05
0.512 0.05
0.516 0.05
0.52 0.05
0.524 0.05
0.528 0.05
0.532 0.05
0.536 0.05
0.54 0.05
0.544 0.05
0.548 0.05
0.552 0.05
0.556 0.05
0.56 0.05
0.564 0.05
0.568 0.05
0.572 0.05
0.576 0.05
0.58 0.05
0.584 0.05
0.588 0.05
0.592 0.05
0.596 0.05
0.6 0.05
0.604 0.05
0.608 0.05
0.612 0.05
0.616 0.05
0.62 0.05
0.624 0.05
0.628 0.05
0.632 0.05
0.636 0.05
0.64 0.05
0.644 0.05
0.648 0.05
0.652 0.05
0.656 0.05
0.66 0.05
0.664 0.05
0.668 0.05
0.672 0.05
0.676 0.05
0.68 0.05
0.684 0.05
0.688 0.05
0.692 0.05
0.696 0.05
0.7 0.05
0.704 0.05
0.708 0.05
0.712 0.05
0.716 0.05
0.72 0.05
0.724 0.05
0.728 0.05
0.732 0.05
0.736 0.05
0.74 0.05
0.744 0.05
0.748 0.05
0.752 0.05
0.756 0.05
0.76 0.05
0.764 0.05
0.768 0.05
0.772 0.05
0.776 0.05
0.78 0.05
0.784 0.05
0.788 0.05
0.792 0.05
0.796 0.05
0.8 0.05
0.804 0.05
0.808 0.05
0.812 0.05
0.816 0.05
0.82 0.05
0.824 0.05
0.828 0.05
0.832 0.05
0.836 0.05
0.84 0.05
0.844 0.05
0.848 0.05
0.852 0.05
0.856 0.05
0.86 0.05
0.864 0.05
0.868 0.05
0.872 0.05
0.876 0.05
0.88 0.05
0.884 0.05
0.888 0.05
0.892 0.05
0.896 0.05
0.9 0.05
0.904 0.05
0.908 0.05
0.912 0.05
0.916 0.05
0.92 0.05
0.924 0.05
0.928 0.05
0.932 0.05
0.936 0.05
0.94 0.05
0.944 0.05
0.948 0.05
0.952 0.05
0.956 0.05
0.96 0.05
0.964 0.05
0.968 0.05
0.972 0.05
0.976 0.05
0.98 0.05
0.984 0.05
0.988 0.05
0.992 0.05
0.996 0.05
1 0.05
0 0.006
0.004 0.006
0.008 0.006
0.012 0.006
0.016 0.006
0.02 0.006
0.024 0.006
0.028 0.006
0.032 0.006
0.036 0.006
0.04 0.006
0.044 0.006
0.048 0.006
0.052 0.006
0.056 0.006
0.06 0.006
0.064 0.006
0.068 0.006
0.072 0.006
0.076 0.006
0.08 0.006
0.084 0.006
0.088 0.006
0.092 0.006
0.096 0.006
0.1 0.006
0.104 0.006
0.108 0.006
0.112 0.006
0.116 0.006
0.12 0.006
0.124 0.006
0.128 0.006
0.132 0.006
0.136 0.006
0.14 0.006
0.144 0.006
0.148 0.006
0.152 0.006
0.156 0.006
0.16 0.006
0.164 0.006
0.168 0.006
0.172 0.006
0.176 0.006
0.18 0.006
0.184 0.006
0.188 0.006
0.192 0.006
0.196 0.006
0.2 0.006
0.204 0.00698
0.208 0.00796
0.212 0.00894
0.216 0.00992
0.22 0.0109
0.224 0.01188
0.228 0.01286
0.232 0.01384
0.236 0.01482
0.24 0.0158
0.244 0.01678
0.248 0.01776
0.252 0.01874
0.256 0.01972
0.26 0.0207
0.264 0.02168
0.268 0.02266
0.272 0.02364
0.276 0.02462
0.28 0.0256
0.284 0.02658
0.288 0.02756
0.292 0.02854
0.296 0.02952
0.3 0.0305
0.304 0.03148
0.308 0.03246
0.312 0.03344
0.316 0.03442
0.32 0.0354
0.324 0.03638
0.328 0.03736
0.332 0.03834
0.336 0.03932
0.34 0.0403
0.344 0.04128
0.348 0.04226
0.352 0.04324
0.356 0.04422
0.36 0.0452
0.364 0.04618
0.368 0.04716
0.372 0.04814
0.376 0.04912
0.38 0.0501
0.384 0.05108
0.388 0.05206
0.392 0.05304
0.396 0.05402
0.4 0.055
0.404 0.055
0.408 0.055
0.412 0.055
0.416 0.055
0.42 0.055
0.424 0.055
0.428 0.055
0.432 0.055
0.436 0.055
0.44 0.055
0.444 0.055
0.448 0.055
0.452 0.055
0.456 0.055
0.46 0.055
0.464 0.055
0.468 0.055
0.472 0.055
0.476 0.055
0.48 0.055
0.484 0.055
0.488 0.055
0.492 0.055
0.496 0.055
0.5 0.055
0.504 0.055
0.508 0.055
0.512 0.055
0.516 0.055
0.52 0.055
0.524 0.055
0.528 0.055
0.532 0.055
0.536 0.055
0.54 0.055
0.544 0.055
0.548 0.055
0.552 0.055
0.556 0.055
0.56 0.055
0.564 0.055
0.568 0.055
0.572 0.055
0.576 0.055
0.58 0.055
0.584 0.055
0.588 0.055
0.592 0.055
0.596 0.055
0.6 0.055
0.604 0.055
0.608 0.055
0.612 0.055
0.616 0.055
0.62 0.055
0.624 0.055
0.628 0.055
0.632 0.055
0.636 0.055
0.64 0.055
0.644 0.055
0.648 0.055
0.652 0.055
0.656 0.055
0.66 0.055
0.664 0.055
0.668 0.055
0.672 0.055
0.676 0.055
0.68 0.055
0.684 0.055
0.688 0.055
0.692 0.055
0.696 0.055
0.7 0.055
0.704 0.055
0.708 0.055
0.712 0.055
0.716 0.055
0.72 0.055
0.724 0.055
0.728 0.055
0.732 0.055
0.736 0.055
0.74 0.055
0.744 0.055
0.748 0.055
0.752 0.055
0.756 0.055
0.76 0.055
0.764 0.055
0.768 0.055
0.772 0.055
0.776 0.055
0.78 0.055
0.784 0.055
0.788 0.055
0.792 0.055
0.796 0.055
0.8 0.055
0.804 0.055
0.808 0.055
0.812 0.055
0.816 0.055
0.82 0.055
0.824 0.055
0.828 0.055
0.832 0.055
0.836 0.055
0.84 0.055
0.844 0.055
0.848 0.055
0.852 0.055
0.856 0.055
0.86 0.055
0.864 0.055
0.868 0.055
0.872 0.055
0.876 0.055
0.88 0.055
0.884 0.055
0.888 0.055
0.892 0.055
0.896 0.055
0.9 0.055
0.904 0.055
0.908 0.055
0.912 0.055
0.916 0.055
0.92 0.055
0.924 0.055
0.928 0.055
0.932 0.055
0.936 0.055
0.94 0.055
0.944 0.055
0.948 0.055
0.952 0.055
0.956 0.055
0.96 0.055
0.964 0.055
0.968 0.055
0.972 0.055
0.976 0.055
0.98 0.055
0.984 0.055
0.988 0.055
0.992 0.055
0.996 0.055
1 0.055
0 0.012
0.004 0.012
0.008 0.012
0.012 0.012
0.016 0.012
0.02 0.012
0.024 0.012
0.028 0.012
0.032 0.012
0.036 0.012
0.04 0.012
0.044 0.012
0.048 0.012
0.052 0.012
0.056 0.012
0.06 0.012
0.064 0.012
0.068 0.012
0.072 0.012
0.076 0.012
0.08 0.012
0.084 0.012
0.088 0.012
0.092 0.012
0.096 0.012
0.1 0.012
0.104 0.012
0.108 0.012
0.112 0.012
0.116 0.012
0.12 0.012
0.124 0.012
0.128 0.012
0.132 0.012
0.136 0.012
0.14 0.012
0.144 0.012
0.148 0.012
0.152 0.012
0.156 0.012
0.16 0.012
0.164 0.012
0.168 0.012
0.172 0.012
0.176 0.012
0.18 0.012
0.184 0.012
0.188 0.012
0.192 0.012
0.196 0.012
0.2 0.012
0.204 0.01296
0.208 0.01392
0.212 0.01488
0.216 0.01584
0.22 0.0168
0.224 0.01776
0.228 0.01872
0.232 0.01968
0.236 0.02064
0.24 0.0216
0.244 0.02256
0.248 0.02352
0.252 0.02448
0.256 0.02544
0.26 0.0264
0.264 0.02736
0.268 0.02832
0.272 0.02928
0.276 0.03024
0.28 0.0312
0.284 0.03216
0.288 0.03312
0.292 0.03408
0.296 0.03504
0.3 0.036
0.304 0.03696
0.308 0.03792
0.312 0.03888
0.316 0.03984
0.32 0.0408
0.324 0.04176
0.328 0.04272
0.332 0.04368
0.336 0.04464
0.34 0.0456
0.344 0.04656
0.348 0.04752
0.352 0.04848
0.356 0.04944
0.36 0.0504
0.364 0.05136
0.368 0.05232
0.372 0.05328
0.376 0.05424
0.38 0.0552
0.384 0.05616
0.388 0.05712
0.392 0.05808
0.396 0.05904
0.4 0.06
0.404 0.06
0.408 0.06
0.412 0.06
0.416 0.06
0.42 0.06
0.424 0.06
0.428 0.06
0.432 0.06
0.436 0.06
0.44 0.06
0.444 0.06
0.448 0.06
0.452 0.06
0.456 0.06
0.46 0.06
0.464 0.06
0.468 0.06
0.472 0.06
0.476 0.06
0.48 0.06
0.484 0.06
0.488 0.06
0.492 0.06
0.496 0.06
0.5 0.06
0.504 0.06
0.508 0.06
0.512 0.06
0.516 0.06
0.52 0.06
0.524 0.06
0.528 0.06
0.532 0.06
0.536 0.06
0.54 0.06
0.544 0.06
0.548 0.06
0.552 0.06
0.556 0.06
0.56 0.06
0.564 0.06
0.568 0.06
0.572 0.06
0.576 0.06
0.58 0.06
0.584 0.06
0.588 0.06
0.592 0.06
0.596 0.06
0.6 0.06
0.604 0.06
0.608 0.06
0.612 0.06
0.616 0.06
0.62 0.06
0.624 0.06
0.628 0.06
0.632 0.06
0.636 0.06
0.64 0.06
0.644 0.06
0.648 0.06
0.652 0.06
0.656 0.06
0.66 0.06
0.664 0.06
0.668 0.06
0.672 0.06
0.676 0.06
0.68 0.06
0.684 0.06
0.688 0.06
0.692 0.06
0.696 0.06
0.7 0.06
0.704 0.06
0.708 0.06
0.712 0.06
0.716 0.06
0.72 0.06
0.724 0.06
0.728 0.06
0.732 0.06
0.736 0.06
0.74 0.06
0.744 0.06
0.748 0.06
0.752 0.06
0.756 0.06
0.76 0.06
0.764 0.06
0.768 0.06
0.772 0.06
0.776 0.06
0.78 0.06
0.784 0.06
0.788 0.06
0.792 0.06
0.796 0.06
0.8 0.06
0.804 0.06
0.808 0.06
0.812 0.06
0.816 0.06
0.82 0.06
0.824 0.06
0.828 0.06
0.832 0.06
0.836 0.06
0.84 0.06
0.844 0.06
0.848 0.06
0.852 0.06
0.856 0.06
0.86 0.06
0.864 0.06
0.868 0.06
0.872 0.06
0.876 0.06
0.88 0.06
0.884 0.06
0.888 0.06
0.892 0.06
0.896 0.06
0.9 0.06
0.904 0.06
0.908 0.06
0.912 0.06
0.916 0.06
0.92 0.06
0.924 0.06
0.928 0.06
0.932 0.06
0.936 0.06
0.94 0.06
0.944 0.06
0.948 0.06
0.952 0.06
0.956 0.06
0.96 0.06
0.964 0.06
0.968 0.06
0.972 0.06
0.976 0.06
0.98 0.06
0.984 0.06
0.988 0.06
0.992 0.06
0.996 0.06
1 0.06
0 0.018
0.004 0.018
0.008 0.018
0.012 0.018
0.016 0.018
0.02 0.018
0.024 0.018
0.028 0.018
0.032 0.018
0.036 0.018
0.04 0.018
0.044 0.018
0.048 0.018
0.052 0.018
0.056 0.018
0.06 0.018
0.064 0.018
0.068 0.018
0.072 0.018
0.076 0.018
0.08 0.018
0.084 0.018
0.088 0.018
0.092 0.018
0.096 0.018
0.1 0.018
0.104 0.018
0.108 0.018
0.112 0.018
0.116 0.018
0.12 0.018
0.124 0.018
0.128 0.018
0.132 0.018
0.136 0.018
0.14 0.018
0.144 0.018
0.148 0.018
0.152 0.018
0.156 0.018
0.16 0.018
0.164 0.018
0.168 0.018
0.172 0.018
0.176 0.018
0.18 0.018
0.184 0.018
0.188 0.018
0.192 0.018
0.196 0.018
0.2 0.018
0.204 0.01894
0.208 0.01988
0.212 0.02082
0.216 0.02176
0.22 0.0227
0.224 0.02364
0.228 0.02458
0.232 0.02552
0.236 0.02646
0.24 0.0274
0.244 0.02834
0.248 0.02928
0.252 0.03022
0.256 0.03116
0.26 0.0321
0.264 0.03304
0.268 0.03398
0.272 0.03492
0.276 0.03586
0.28 0.0368
0.284 0.03774
0.288 0.03868
0.292 0.03962
0.296 0.04056
0.3 0.0415
0.304 0.04244
0.308 0.04338
0.312 0.04432
0.316 0.04526
0.32 0.0462
0.324 0.04714
0.328 0.04808
0.332 0.04902
0.336 0.04996
0.34 0.0509
0.344 0.05184
0.348 0.05278
0.352 0.05372
0.356 0.05466
0.36 0.0556
0.364 0.05654
0.368 0.05748
0.372 0.05842
0.376 0.05936
0.38 0.0603
0.384 0.06124
0.388 0.06218
0.392 0.06312
0.396 0.06406
0.4 0.065
0.404 0.065
0.408 0.065
0.412 0.065
0.416 0.065
0.42 0.065
0.424 0.065
0.428 0.065
0.432 0.065
0.436 0.065
0.44 0.065
0.444 0.065
0.448 0.065
0.452 0.065
0.456 0.065
0.46 0.065
0.464 0.065
0.468 0.065
0.472 0.065
0.476 0.065
0.48 0.065
0.484 0.065
0.488 0.065
0.492 0.065
0.496 0.065
0.5 0.065
0.504 0.065
0.508 0.065
0.512 0.065
0.516 0.065
0.52 0.065
0.524 0.065
0.528 0.065
0.532 0.065
0.536 0.065
0.54 0.065
0.544 0.065
0.548 0.065
0.552 0.065
0.556 0.065
0.56 0.065
0.564 0.065
0.568 0.065
0.572 0.065
0.576 0.065
0.58 0.065
0.584 0.065
0.588 0.065
0.592 0.065
0.596 0.065
0.6 0.065
0.604 0.065
0.608 0.065
0.612 0.065
0.616 0.065
0.62 0.065
0.624 0.065
0.628 0.065
0.632 0.065
0.636 0.065
0.64 0.065
0.644 0.065
0.648 0.065
0.652 0.065
0.656 0.065
0.66 0.065
0.664 0.065
0.668 0.065
0.672 0.065
0.676 0.065
0.68 0.065
0.684 0.065
0.688 0.065
0.692 0.065
0.696 0.065
0.7 0.065
0.704 0.065
0.708 0.065
0.712 0.065
0.716 0.065
0.72 0.065
0.724 0.065
0.728 0.065
0.732 0.065
0.736 0.065
0.74 0.065
0.744 0.065
0.748 0.065
0.752 0.065
0.756 0.065
0.76 0.065
0.764 0.065
0.768 0.065
0.772 0.065
0.776 0.065
0.78 0.065
0.784 0.065
0.788 0.065
0.792 0.065
0.796 0.065
0.8 0.065
0.804 0.065
0.808 0.065
0.812 0.065
0.816 0.065
0.82 0.065
0.824 0.065
0.828 0.065
0.832 0.065
0.836 0.065
0.84 0.065
0.844 0.065
0.848 0.065
0.852 0.065
0.856 0.065
0.86 0.065
0.864 0.065
0.868 0.065
0.872 0.065
0.876 0.065
0.88 0.065
0.884 0.065
0.888 0.065
0.892 0.065
0.896 0.065
0.9 0.065
0.904 0.065
0.908 0.065
0.912 0.065
0.916 0.065
0.92 0.065
0.924 0.065
0.928 0.065
0.932 0.065
0.936 0.065
0.94 0.065
0.944 0.065
0.948 0.065
0.952 0.065
0.956 0.065
0.96 0.065
0.964 0.065
0.968 0.065
0.972 0.065
0.976 0.065
0.98 0.065
0.984 0.065
0.988 0.065
0.992 0.065
0.996 0.065
1 0.065
0 0.024
0.004 0.024
0.008 0.024
0.012 0.024
0.016 0.024
0.02 0.024
0.024 0.024
0.028 0.024
0.032 0.024
0.036 0.024
0.04 0.024
0.044 0.024
0.048 0.024
0.052 0.024
0.056 0.024
0.06 0.024
0.064 0.024
0.068 0.024
0.072 0.024
0.076 0.024
0.08 0.024
0.084 0.024
0.088 0.024
0.092 0.024
0.096 0.024
0.1 0.024
0.104 0.024
0.108 0.024
0.112 0.024
0.116 0.024
0.12 0.024
0.124 0.024
0.128 0.024
0.132 0.024
0.136 0.024
0.14 0.024
0.144 0.024
0.148 0.024
0.152 0.024
0.156 0.024
0.16 0.024
0.164 0.024
0.168 0.024
0.172 0.024
0.176 0.024
0.18 0.024
0.184 0.024
0.188 0.024
0.192 0.024
0.196 0.024
0.2 0.024
0.204 0.02492
0.208 0.02584
0.212 0.02676
0.216 0.02768
0.22 0.0286
0.224 0.02952
0.228 0.03044
0.232 0.03136
0.236 0.03228
0.24 0.0332
0.244 0.03412
0.248 0.03504
0.252 0.03596
0.256 0.03688
0.26 0.0378
0.264 0.03872
0.268 0.03964
0.272 0.04056
0.276 0.04148
0.28 0.0424
0.284 0.04332
0.288 0.04424
0.292 0.04516
0.296 0.04608
0.3 0.047
0.304 0.04792
0.308 0.04884
0.312 0.04976
0.316 0.05068
0.32 0.0516
0.324 0.05252
0.328 0.05344
0.332 0.05436
0.336 0.05528
0.34 0.0562
0.344 0.05712
0.348 0.05804
0.352 0.05896
0.356 0.05988
0.36 0.0608
0.364 0.06172
0.368 0.06264
0.372 0.06356
0.376 0.06448
0.38 0.0654
0.384 0.06632
0.388 0.06724
0.392 0.06816
0.396 0.06908
0.4 0.07
0.404 0.07
0.408 0.07
0.412 0.07
0.416 0.07
0.42 0.07
0.424 0.07
0.428 0.07
0.432 0.07
0.436 0.07
0.44 0.07
0.444 0.07
0.448 0.07
0.452 0.07
0.456 0.07
0.46 0.07
0.464 0.07
0.468 0.07
0.472 0.07
0.476 0.07
0.48 0.07
0.484 0.07
0.488 0.07
0.492 0.07
0.496 0.07
0.5 0.07
0.504 0.07
0.508 0.07
0.512 0.07
0.516 0.07
0.52 0.07
0.524 0.07
0.528 0.07
0.532 0.07
0.536 0.07
0.54 0.07
0.544 0.07
0.548 0.07
0.552 0.07
0.556 0.07
0.56 0.07
0.564 0.07
0.568 0.07
0.572 0.07
0.576 0.07
0.58 0.07
0.584 0.07
0.588 0.07
0.592 0.07
0.596 0.07
0.6 0.07
0.604 0.07
0.608 0.07
0.612 0.07
0.616 0.07
0.62 0.07
0.624 0.07
0.628 0.07
0.632 0.07
0.636 0.07
0.64 0.07
0.644 0.07
0.648 0.07
0.652 0.07
0.656 0.07
0.66 0.07
0.664 0.07
0.668 0.07
0.672 0.07
0.676 0.07
0.68 0.07
0.684 0.07
0.688 0.07
0.692 0.07
0.696 0.07
0.7 0.07
0.704 0.07
0.708 0.07
0.712 0.07
0.716 0.07
0.72 0.07
0.724 0.07
0.728 0.07
0.732 0.07
0.736 0.07
0.74 0.07
0.744 0.07
0.748 0.07
0.752 0.07
0.756 0.07
0.76 0.07
0.764 0.07
0.768 0.07
0.772 0.07
0.776 0.07
0.78 0.07
0.784 0.07
0.788 0.07
0.792 0.07
0.796 0.07
0.8 0.07
0.804 0.07
0.808 0.07
0.812 0.07
0.816 0.07
0.82 0.07
0.824 0.07
0.828 0.07
0.832 0.07
0.836 0.07
0.84 0.07
0.844 0.07
0.848 0.07
0.852 0.07
0.856 0.07
0.86 0.07
0.864 0.07
0.868 0.07
0.872 0.07
0.876 0.07
0.88 0.07
0.884 0.07
0.888 0.07
0.892 0.07
0.896 0.07
0.9 0.07
0.904 0.07
0.908 0.07
0.912 0.07
0.916 0.07
0.92 0.07
0.924 0.07
0.928 0.07
0.932 0.07
0.936 0.07
0.94 0.07
0.944 0.07
0.948 0.07
0.952 0.07
0.956 0.07
0.96 0.07
0.964 0.07
0.968 0.07
0.972 0.07
0.976 0.07
0.98 0.07
0.984 0.07
0.988 0.07
0.992 0.07
0.996 0.07
1 0.07
0 0.03
0.004 0.03
0.008 0.03
0.012 0.03
0.016 0.03
0.02 0.03
0.024 0.03
0.028 0.03
0.032 0.03
0.036 0.03
0.04 0.03
0.044 0.03
0.048 0.03
0.052 0.03
0.056 0.03
0.06 0.03
0.064 0.03
0.068 0.03
0.072 0.03
0.076 0.03
0.08 0.03
0.084 0.03
0.088 0.03
0.092 0.03
0.096 0.03
0.1 0.03
0.104 0.03
0.108 0.03
0.112 0.03
0.116 0.03
0.12 0.03
0.124 0.03
0.128 0.03
0.132 0.03
0.136 0.03
0.14 0.03
0.144 0.03
0.148 0.03
0.152 0.03
0.156 0.03
0.16 0.03
0.164 0.03
0.168 0.03
0.172 0.03
0.176 0.03
0.18 0.03
0.184 0.03
0.188 0.03
0.192 0.03
0.196 0.03
0.2 0.03
0.204 0.0309
0.208 0.0318
0.212 0.0327
0.216 0.0336
0.22 0.0345
0.224 0.0354
0.228 0.0363
0.232 0.0372
0.236 0.0381
0.24 0.039
0.244 0.0399
0.248 0.0408
0.252 0.0417
0.256 0.0426
0.26 0.0435
0.264 0.0444
0.268 0.0453
0.272 0.0462
0.276 0.0471
0.28 0.048
0.284 0.0489
0.288 0.0498
0.292 0.0507
0.296 0.0516
0.3 0.0525
0.304 0.0534
0.308 0.0543
0.312 0.0552
0.316 0.0561
0.32 0.057
0.324 0.0579
0.328 0.0588
0.332 0.0597
0.336 0.0606
0.34 0.0615
0.344 0.0624
0.348 0.0633
0.352 0.0642
0.356 0.0651
0.36 0.066
0.364 0.0669
0.368 0.0678
0.372 0.0687
0.376 0.0696
0.38 0.0705
0.384 0.0714
0.388 0.0723
0.392 0.0732
0.396 0.0741
0.4 0.075
0.404 0.075
0.408 0.075
0.412 0.075
0.416 0.075
0.42 0.075
0.424 0.075
0.428 0.075
0.432 0.075
0.436 0.075
0.44 0.075
0.444 0.075
0.448 0.075
0.452 0.075
0.456 0.075
0.46 0.075
0.464 0.075
0.468 0.075
0.472 0.075
0.476 0.075
0.48 0.075
0.484 0.075
0.488 0.075
0.492 0.075
0.496 0.075
0.5 0.075
0.504 0.075
0.508 0.075
0.512 0.075
0.516 0.075
0.52 0.075
0.524 0.075
0.528 0.075
0.532 0.075
0.536 0.075
0.54 0.075
0.544 0.075
0.548 0.075
0.552 0.075
0.556 0.075
0.56 0.075
0.564 0.075
0.568 0.075
0.572 0.075
0.576 0.075
0.58 0.075
0.584 0.075
0.588 0.075
0.592 0.075
0.596 0.075
0.6 0.075
0.604 0.075
0.608 0.075
0.612 0.075
0.616 0.075
0.62 0.075
0.624 0.075
0.628 0.075
0.632 0.075
0.636 0.075
0.64 0.075
0.644 0.075
0.648 0.075
0.652 0.075
0.656 0.075
0.66 0.075
0.664 0.075
0.668 0.075
0.672 0.075
0.676 0.075
0.68 0.075
0.684 0.075
0.688 0.075
0.692 0.075
0.696 0.075
0.7 0.075
0.704 0.075
0.708 0.075
0.712 0.075
0.716 0.075
0.72 0.075
0.724 0.075
0.728 0.075
0.732 0.075
0.736 0.075
0.74 0.075
0.744 0.075
0.748 0.075
0.752 0.075
0.756 0.075
0.76 0.075
0.764 0.075
0.768 0.075
0.772 0.075
0.776 0.075
0.78 0.075
0.784 0.075
0.788 0.075
0.792 0.075
0.796 0.075
0.8 0.075
0.804 0.075
0.808 0.075
0.812 0.075
0.816 0.075
0.82 0.075
0.824 0.075
0.828 0.075
0.832 0.075
0.836 0.075
0.84 0.075
0.844 0.075
0.848 0.075
0.852 0.075
0.856 0.075
0.86 0.075
0.864 0.075
0.868 0.075
0.872 0.075
0.876 0.075
0.88 0.075
0.884 0.075
0.888 0.075
0.892 0.075
0.896 0.075
0.9 0.075
0.904 0.075
0.908 0.075
0.912 0.075
0.916 0.075
0.92 0.075
0.924 0.075
0.928 0.075
0.932 0.075
0.936 0.075
0.94 0.075
0.944 0.075
0.948 0.075
0.952 0.075
0.956 0.075
0.96 0.075
0.964 0.075
0.968 0.075
0.972 0.075
0.976 0.075
0.98 0.075
0.984 0.075
0.988 0.075
0.992 0.075
0.996 0.075
1 0.075
0 0.036
0.004 0.036
0.008 0.036
0.012 0.036
0.016 0.036
0.02 0.036
0.024 0.036
0.028 0.036
0.032 0.036
0.036 0.036
0.04 0.036
0.044 0.036
0.048 0.036
0.052 0.036
0.056 0.036
0.06 0.036
0.064 0.036
0.068 0.036
0.072 0.036
0.076 0.036
0.08 0.036
0.084 0.036
0.088 0.036
0.092 0.036
0.096 0.036
0.1 0.036
0.104 0.036
0.108 0.036
0.112 0.036
0.116 0.036
0.12 0.036
0.124 0.036
0.128 0.036
0.132 0.036
0.136 0.036
0.14 0.036
0.144 0.036
0.148 0.036
0.152 0.036
0.156 0.036
0.16 0.036
0.164 0.036
0.168 0.036
0.172 0.036
0.176 0.036
0.18 0.036
0.184 0.036
0.188 0.036
0.192 0.036
0.196 0.036
0.2 0.036
0.204 0.03688
0.208 0.03776
0.212 0.03864
0.216 0.03952
0.22 0.0404
0.224 0.04128
0.228 0.04216
0.232 0.04304
0.236 0.04392
0.24 0.0448
0.244 0.04568
0.248 0.04656
0.252 0.04744
0.256 0.04832
0.26 0.0492
0.264 0.05008
0.268 0.05096
0.272 0.05184
0.276 0.05272
0.28 0.0536
0.284 0.05448
0.288 0.05536
0.292 0.05624
0.296 0.05712
0.3 0.058
0.304 0.05888
0.308 0.05976
0.312 0.06064
0.316 0.06152
0.32 0.0624
0.324 0.06328
0.328 0.06416
0.332 0.06504
0.336 0.06592
0.34 0.0668
0.344 0.06768
0.348 0.06856
0.352 0.06944
0.356 0.07032
0.36 0.0712
0.364 0.07208
0.368 0.07296
0.372 0.07384
0.376 0.07472
0.38 0.0756
0.384 0.07648
0.388 0.07736
0.392 0.07824
0.396 0.07912
0.4 0.08
0.404 0.08
0.408 0.08
0.412 0.08
0.416 0.08
0.42 0.08
0.424 0.08
0.428 0.08
0.432 0.08
0.436 0.08
0.44 0.08
0.444 0.08
0.448 0.08
0.452 0.08
0.456 0.08
0.46 0.08
0.464 0.08
0.468 0.08
0.472 0.08
0.476 0.08
0.48 0.08
0.484 0.08
0.488 0.08
0.492 0.08
0.496 0.08
0.5 0.08
0.504 0.08
0.508 0.08
0.512 0.08
0.516 0.08
0.52 0.08
0.524 0.08
0.528 0.08
0.532 0.08
0.536 0.08
0.54 0.08
0.544 0.08
0.548 0.08
0.552 0.08
0.556 0.08
0.56 0.08
0.564 0.08
0.568 0.08
0.572 0.08
0.576 0.08
0.58 0.08
0.584 0.08
0.588 0.08
0.592 0.08
0.596 0.08
0.6 0.08
0.604 0.08
0.608 0.08
0.612 0.08
0.616 0.08
0.62 0.08
0.624 0.08
0.628 0.08
0.632 0.08
0.636 0.08
0.64 0.08
0.644 0.08
0.648 0.08
0.652 0.08
0.656 0.08
0.66 0.08
0.664 0.08
0.668 0.08
0.672 0.08
0.676 0.08
0.68 0.08
0.684 0.08
0.688 0.08
0.692 0.08
0.696 0.08
0.7 0.08
0.704 0.08
0.708 0.08
0.712 0.08
0.716 0.08
0.72 0.08
0.724 0.08
0.728 0.08
0.732 0.08
0.736 0.08
0.74 0.08
0.744 0.08
0.748 0.08
0.752 0.08
0.756 0.08
0.76 0.08
0.764 0.08
0.768 0.08
0.772 0.08
0.776 0.08
0.78 0.08
0.784 0.08
0.788 0.08
0.792 0.08
0.796 0.08
0.8 0.08
0.804 0.08
0.808 0.08
0.812 0.08
0.816 0.08
0.82 0.08
0.824 0.08
0.828 0.08
0.832 0.08
0.836 0.08
0.84 0.08
0.844 0.08
0.848 0.08
0.852 0.08
0.856 0.08
0.86 0.08
0.864 0.08
0.868 0.08
0.872 0.08
0.876 0.08
0.88 0.08
0.884 0.08
0.888 0.08
0.892 0.08
0.896 0.08
0.9 0.08
0.904 0.08
0.908 0.08
0.912 0.08
0.916 0.08
0.92 0.08
0.924 0.08
0.928 0.08
0.932 0.08
0.936 0.08
0.94 0.08
0.944 0.08
0.948 0.08
0.952 0.08
0.956 0.08
0.96 0.08
0.964 0.08
0.968 0.08
0.972 0.08
0.976 0.08
0.98 0.08
0.984 0.08
0.988 0.08
0.992 0.08
0.996 0.08
1 0.08
0 0.042
0.004 0.042
0.008 0.042
0.012 0.042
0.016 0.042
0.02 0.042
0.024 0.042
0.028 0.042
0.032 0.042
0.036 0.042
0.04 0.042
0.044 0.042
0.048 0.042
0.052 0.042
0.056 0.042
0.06 0.042
0.064 0.042
0.068 0.042
0.072 0.042
0.076 0.042
0.08 0.042
0.084 0.042
0.088 0.042
0.092 0.042
0.096 0.042
0.1 0.042
0.104 0.042
0.108 0.042
0.112 0.042
0.116 0.042
0.12 0.042
0.124 0.042
0.128 0.042
0.132 0.042
0.136 0.042
0.14 0.042
0.144 0.042
0.148 0.042
0.152 0.042
0.156 0.042
0.16 0.042
0.164 0.042
0.168 0.042
0.172 0.042
0.176 0.042
0.18 0.042
0.184 0.042
0.188 0.042
0.192 0.042
0.196 0.042
0.2 0.042
0.204 0.04286
0.208 0.04372
0.212 0.04458
0.216 0.04544
0.22 0.0463
0.224 0.04716
0.228 0.04802
0.232 0.04888
0.236 0.04974
0.24 0.0506
0.244 0.05146
0.248 0.05232
0.252 0.05318
0.256 0.05404
0.26 0.0549
0.264 0.05576
0.268 0.05662
0.272 0.05748
0.276 0.05834
0.28 0.0592
0.284 0.06006
0.288 0.06092
0.292 0.06178
0.296 0.06264
0.3 0.0635
0.304 0.06436
0.308 0.06522
0.312 0.06608
0.316 0.06694
0.32 0.0678
0.324 0.06866
0.328 0.06952
0.332 0.07038
0.336 0.07124
0.34 0.0721
0.344 0.07296
0.348 0.07382
0.352 0.07468
0.356 0.07554
0.36 0.0764
0.364 0.07726
0.368 0.07812
0.372 0.07898
0.376 0.07984
0.38 0.0807
0.384 0.08156
0.388 0.08242
0.392 0.08328
0.396 0.08414
0.4 0.085
0.404 0.085
0.408 0.085
0.412 0.085
0.416 0.085
0.42 0.085
0.424 0.085
0.428 0.085
0.432 0.085
0.436 0.085
0.44 0.085
0.444 0.085
0.448 0.085
0.452 0.085
0.456 0.085
0.46 0.085
0.464 0.085
0.468 0.085
0.472 0.085
0.476 0.085
0.48 0.085
0.484 0.085
0.488 0.085
0.492 0.085
0.496 0.085
0.5 0.085
0.504 0.085
0.508 0.085
0.512 0.085
0.516 0.085
0.52 0.085
0.524 0.085
0.528 0.085
0.532 0.085
0.536 0.085
0.54 0.085
0.544 0.085
0.548 0.085
0.552 0.085
0.556 0.085
0.56 0.085
0.564 0.085
0.568 0.085
0.572 0.085
0.576 0.085
0.58 0.085
0.584 0.085
0.588 0.085
0.592 0.085
0.596 0.085
0.6 0.085
0.604 0.085
0.608 0.085
0.612 0.085
0.616 0.085
0.62 0.085
0.624 0.085
0.628 0.085
0.632 0.085
0.636 0.085
0.64 0.085
0.644 0.085
0.648 0.085
0.652 0.085
0.656 0.085
0.66 0.085
0.664 0.085
0.668 0.085
0.672 0.085
0.676 0.085
0.68 0.085
0.684 0.085
0.688 0.085
0.692 0.085
0.696 0.085
0.7 0.085
0.704 0.085
0.708 0.085
0.712 0.085
0.716 0.085
0.72 0.085
0.724 0.085
0.728 0.085
0.732 0.085
0.736 0.085
0.74 0.085
0.744 0.085
0.748 0.085
0.752 0.085
0.756 0.085
0.76 0.085
0.764 0.085
0.768 0.085
0.772 0.085
0.776 0.085
0.78 0.085
0.784 0.085
0.788 0.085
0.792 0.085
0.796 0.085
0.8 0.085
0.804 0.085
0.808 0.085
0.812 0.085
0.816 0.085
0.82 0.085
0.824 0.085
0.828 0.085
0.832 0.085
0.836 0.085
0.84 0.085
0.844 0.085
0.848 0.085
0.852 0.085
0.856 0.085
0.86 0.085
0.864 0.085
0.868 0.085
0.872 0.085
0.876 0.085
0.88 0.085
0.884 0.085
0.888 0.085
0.892 0.085
0.896 0.085
0.9 0.085
0.904 0.085
0.908 0.085
0.912 0.085
0.916 0.085
0.92 0.085
0.924 0.085
0.928 0.085
0.932 0.085
0.936 0.085
0.94 0.085
0.944 0.085
0.948 0.085
0.952 0.085
0.956 0.085
0.96 0.085
0.964 0.085
0.968 0.085
0.972 0.085
0.976 0.085
0.98 0.085
0.984 0.085
0.988 0.085
0.992 0.085
0.996 0.085
1 0.085
0 0.048
0.004 0.048
0.008 0.048
0.012 0.048
0.016 0.048
0.02 0.048
0.024 0.048
0.028 0.048
0.032 0.048
0.036 0.048
0.04 0.048
0.044 0.048
0.048 0.048
0.052 0.048
0.056 0.048
0.06 0.048
0.064 0.048
0.068 0.048
0.072 0.048
0.076 0.048
0.08 0.048
0.084 0.048
0.088 0.048
0.092 0.048
0.096 0.048
0.1 0.048
0.104 0.048
0.108 0.048
0.112 0.048
0.116 0.048
0.12 0.048
0.124 0.048
0.128 0.048
0.132 0.048
0.136 0.048
0.14 0.048
0.144 0.048
0.148 0.048
0.152 0.048
0.156 0.048
0.16 0.048
0.164 0.048
0.168 0.048
0.172 0.048
0.176 0.048
0.18 0.048
0.184 0.048
0.188 0.048
0.192 0.048
0.196 0.048
0.2 0.048
0.204 0.04884
0.208 0.04968
0.212 0.05052
0.216 0.05136
0.22 0.0522
0.224 0.05304
0.228 0.05388
0.232 0.05472
0.236 0.05556
0.24 0.0564
0.244 0.05724
0.248 0.05808
0.252 0.05892
0.256 0.05976
0.26 0.0606
0.264 0.06144
0.268 0.06228
0.272 0.06312
0.276 0.06396
0.28 0.0648
0.284 0.06564
0.288 0.06648
0.292 0.06732
0.296 0.06816
0.3 0.069
0.304 0.06984
0.308 0.07068
0.312 0.07152
0.316 0.07236
0.32 0.0732
0.324 0.07404
0.328 0.07488
0.332 0.07572
0.336 0.07656
0.34 0.0774
0.344 0.07824
0.348 0.07908
0.352 0.07992
0.356 0.08076
0.36 0.0816
0.364 0.08244
0.368 0.08328
0.372 0.08412
0.376 0.08496
0.38 0.0858
0.384 0.08664
0.388 0.08748
0.392 0.08832
0.396 0.08916
0.4 0.09
0.404 0.09
0.408 0.09
0.412 0.09
0.416 0.09
0.42 0.09
0.424 0.09
0.428 0.09
0.432 0.09
0.436 0.09
0.44 0.09
0.444 0.09
0.448 0.09
0.452 0.09
0.456 0.09
0.46 0.09
0.464 0.09
0.468 0.09
0.472 0.09
0.476 0.09
0.48 0.09
0.484 0.09
0.488 0.09
0.492 0.09
0.496 0.09
0.5 0.09
0.504 0.09
0.508 0.09
0.512 0.09
0.516 0.09
0.52 0.09
0.524 0.09
0.528 0.09
0.532 0.09
0.536 0.09
0.54 0.09
0.544 0.09
0.548 0.09
0.552 0.09
0.556 0.09
0.56 0.09
0.564 0.09
0.568 0.09
0.572 0.09
0.576 0.09
0.58 0.09
0.584 0.09
0.588 0.09
0.592 0.09
0.596 0.09
0.6 0.09
0.604 0.09
0.608 0.09
0.612 0.09
0.616 0.09
0.62 0.09
0.624 0.09
0.628 0.09
0.632 0.09
0.636 0.09
0.64 0.09
0.644 0.09
0.648 0.09
0.652 0.09
0.656 0.09
0.66 0.09
0.664 0.09
0.668 0.09
0.672 0.09
0.676 0.09
0.68 0.09
0.684 0.09
0.688 0.09
0.692 0.09
0.696 0.09
0.7 0.09
0.704 0.09
0.708 0.09
0.712 0.09
0.716 0.09
0.72 0.09
0.724 0.09
0.728 0.09
0.732 0.09
0.736 0.09
0.74 0.09
0.744 0.09
0.748 0.09
0.752 0.09
0.756 0.09
0.76 0.09
0.764 0.09
0.768 0.09
0.772 0.09
0.776 0.09
0.78 0.09
0.784 0.09
0.788 0.09
0.792 0.09
0.796 0.09
0.8 0.09
0.804 0.09
0.808 0.09
0.812 0.09
0.816 0.09
0.82 0.09
0.824 0.09
0.828 0.09
0.832 0.09
0.836 0.09
0.84 0.09
0.844 0.09
0.848 0.09
0.852 0.09
0.856 0.09
0.86 0.09
0.864 0.09
0.868 0.09
0.872 0.09
0.876 0.09
0.88 0.09
0.884 0.09
0.888 0.09
0.892 0.09
0.896 0.09
0.9 0.09
0.904 0.09
0.908 0.09
0.912 0.09
0.916 0.09
0.92 0.09
0.924 0.09
0.928 0.09
0.932 0.09
0.936 0.09
0.94 0.09
0.944 0.09
0.948 0.09
0.952 0.09
0.956 0.09
0.96 0.09
0.964 0.09
0.968 0.09
0.972 0.09
0.976 0.09
0.98 0.09
0.984 0.09
0.988 0.09
0.992 0.09
0.996 0.09
1 0.09
0 0.054
0.004 0.054
0.008 0.054
0.012 0.054
0.016 0.054
0.02 0.054
0.024 0.054
0.028 0.054
0.032 0.054
0.036 0.054
0.04 0.054
0.044 0.054
0.048 0.054
0.052 0.054
0.056 0.054
0.06 0.054
0.064 0.054
0.068 0.054
0.072 0.054
0.076 0.054
0.08 0.054
0.084 0.054
0.088 0.054
0.092 0.054
0.096 0.054
0.1 0.054
0.104 0.054
0.108 0.054
0.112 0.054
0.116 0.054
0.12 0.054
0.124 0.054
0.128 0.054
0.132 0.054
0.136 0.054
0.14 0.054
0.144 0.054
0.148 0.054
0.152 0.054
0.156 0.054
0.16 0.054
0.164 0.054
0.168 0.054
0.172 0.054
0.176 0.054
0.18 0.054
0.184 0.054
0.188 0.054
0.192 0.054
0.196 0.054
0.2 0.054
0.204 0.05482
0.208 0.05564
0.212 0.05646
0.216 0.05728
0.22 0.0581
0.224 0.05892
0.228 0.05974
0.232 0.06056
0.236 0.06138
0.24 0.0622
0.244 0.06302
0.248 0.06384
0.252 0.06466
0.256 0.06548
0.26 0.0663
0.264 0.06712
0.268 0.06794
0.272 0.06876
0.276 0.06958
0.28 0.0704
0.284 0.07122
0.288 0.07204
0.292 0.07286
0.296 0.07368
0.3 0.0745
0.304 0.07532
0.308 0.07614
0.312 0.07696
0.316 0.07778
0.32 0.0786
0.324 0.07942
0.328 0.08024
0.332 0.08106
0.336 0.08188
0.34 0.0827
0.344 0.08352
0.348 0.08434
0.352 0.08516
0.356 0.08598
0.36 0.0868
0.364 0.08762
0.368 0.08844
0.372 0.08926
0.376 0.09008
0.38 0.0909
0.384 0.09172
0.388 0.09254
0.392 0.09336
0.396 0.09418
0.4 0.095
0.404 0.095
0.408 0.095
0.412 0.095
0.416 0.095
0.42 0.095
0.424 0.095
0.428 0.095
0.432 0.095
0.436 0.095
0.44 0.095
0.444 0.095
0.448 0.095
0.452 0.095
0.456 0.095
0.46 0.095
0.464 0.095
0.468 0.095
0.472 0.095
0.476 0.095
0.48 0.095
0.484 0.095
0.488 0.095
0.492 0.095
0.496 0.095
0.5 0.095
0.504 0.095
0.508 0.095
0.512 0.095
0.516 0.095
0.52 0.095
0.524 0.095
0.528 0.095
0.532 0.095
0.536 0.095
0.54 0.095
0.544 0.095
0.548 0.095
0.552 0.095
0.556 0.095
0.56 0.095
0.564 0.095
0.568 0.095
0.572 0.095
0.576 0.095
0.58 0.095
0.584 0.095
0.588 0.095
0.592 0.095
0.596 0.095
0.6 0.095
0.604 0.095
0.608 0.095
0.612 0.095
0.616 0.095
0.62 0.095
0.624 0.095
0.628 0.095
0.632 0.095
0.636 0.095
0.64 0.095
0.644 0.095
0.648 0.095
0.652 0.095
0.656 0.095
0.66 0.095
0.664 0.095
0.668 0.095
0.672 0.095
0.676 0.095
0.68 0.095
0.684 0.095
0.688 0.095
0.692 0.095
0.696 0.095
0.7 0.095
0.704 0.095
0.708 0.095
0.712 0.095
0.716 0.095
0.72 0.095
0.724 0.095
0.728 0.095
0.732 0.095
0.736 0.095
0.74 0.095
0.744 0.095
0.748 0.095
0.752 0.095
0.756 0.095
0.76 0.095
0.764 0.095
0.768 0.095
0.772 0.095
0.776 0.095
0.78 0.095
0.784 0.095
0.788 0.095
0.792 0.095
0.796 0.095
0.8 0.095
0.804 0.095
0.808 0.095
0.812 0.095
0.816 0.095
0.82 0.095
0.824 0.095
0.828 0.095
0.832 0.095
0.836 0.095
0.84 0.095
0.844 0.095
0.848 0.095
0.852 0.095
0.856 0.095
0.86 0.095
0.864 0.095
0.868 0.095
0.872 0.095
0.876 0.095
0.88 0.095
0.884 0.095
0.888 0.095
0.892 0.095
0.896 0.095
0.9 0.095
0.904 0.095
0.908 0.095
0.912 0.095
0.916 0.095
0.92 0.095
0.924 0.095
0.928 0.095
0.932 0.095
0.936 0.095
0.94 0.095
0.944 0.095
0.948 0.095
0.952 0.095
0.956 0.095
0.96 0.095
0.964 0.095
0.968 0.095
0.972 0.095
0.976 0.095
0.98 0.095
0.984 0.095
0.988 0.095
0.992 0.095
0.996 0.095
1 0.095
0 0.06
0.004 0.06
0.008 0.06
0.012 0.06
0.016 0.06
0.02 0.06
0.024 0.06
0.028 0.06
0.032 0.06
0.036 0.06
0.04 0.06
0.044 0.06
0.048 0.06
0.052 0.06
0.056 0.06
0.06 0.06
0.064 0.06
0.068 0.06
0.072 0.06
0.076 0.06
0.08 0.06
0.084 0.06
0.088 0.06
0.092 0.06
0.096 0.06
0.1 0.06
0.104 0.06
0.108 0.06
0.112 0.06
0.116 0.06
0.12 0.06
0.124 0.06
0.128 0.06
0.132 0.06
0.136 0.06
0.14 0.06
0.144 0.06
0.148 0.06
0.152 0.06
0.156 0.06
0.16 0.06
0.164 0.06
0.168 0.06
0.172 0.06
0.176 0.06
0.18 0.06
0.184 0.06
0.188 0.06
0.192 0.06
0.196 0.06
0.2 0.06
0.204 0.0608
0.208 0.0616
0.212 0.0624
0.216 0.0632
0.22 0.064
0.224 0.0648
0.228 0.0656
0.232 0.0664
0.236 0.0672
0.24 0.068
0.244 0.0688
0.248 0.0696
0.252 0.0704
0.256 0.0712
0.26 0.072