Title="Field"
Variables="x","y","rho","u","v","p","T","Ma"
Zone T="zone1" i=250,j=50,f=point
0.000 0.000 1.0343e+00 5.6796e+02 -8.7280e+01 9.6624e+04 3.2552e+02 1.5889e+00 
0.000 0.006 1.0343e+00 5.6796e+02 -5.4080e+01 9.7595e+04 3.2879e+02 1.5697e+00 
0.000 0.012 1.1768e+00 5.7486e+02 -4.5425e+01 1.1498e+05 3.4043e+02 1.5592e+00 
0.000 0.018 1.1768e+00 5.7486e+02 -4.5425e+01 1.1498e+05 3.4043e+02 1.5592e+00 
0.000 0.024 1.1768e+00 5.7486e+02 -4.5425e+01 1.1498e+05 3.4043e+02 1.5592e+00 
0.000 0.030 1.1768e+00 5.7486e+02 -4.5425e+01 1.1498e+05 3.4043e+02 1.5592e+00 
0.000 0.036 1.1768e+00 5.7486e+02 -4.5425e+01 1.1498e+05 3.4043e+02 1.5592e+00 
0.000 0.042 1.1768e+00 5.7486e+02 -4.5425e+01 1.1498e+05 3.4043e+02 1.5592e+00 
0.000 0.048 1.1768e+00 5.7486e+02 -4.5425e+01 1.1498e+05 3.4043e+02 1.5592e+00 
0.000 0.054 1.1768e+00 5.7486e+02 -4.5425e+01 1.1498e+05 3.4043e+02 1.5592e+00 
0.000 0.060 1.1768e+00 5.7486e+02 -4.5425e+01 1.1498e+05 3.4043e+02 1.5592e+00 
0.000 0.066 1.1768e+00 5.7486e+02 -4.5425e+01 1.1498e+05 3.4043e+02 1.5592e+00 
0.000 0.072 1.1768e+00 5.7486e+02 -4.5425e+01 1.1498e+05 3.4043e+02 1.5592e+00 
0.000 0.078 1.1768e+00 5.7486e+02 -4.5425e+01 1.1498e+05 3.4043e+02 1.5592e+00 
0.000 0.084 1.1768e+00 5.7486e+02 -4.5425e+01 1.1498e+05 3.4043e+02 1.5592e+00 
0.000 0.090 1.1768e+00 5.7486e+02 -4.5425e+01 1.1498e+05 3.4043e+02 1.5592e+00 
0.000 0.096 1.1768e+00 5.7486e+02 -4.5425e+01 1.1498e+05 3.4043e+02 1.5592e+00 
0.000 0.102 1.1768e+00 5.7486e+02 -4.5425e+01 1.1498e+05 3.4043e+02 1.5592e+00 
0.000 0.108 1.1768e+00 5.7486e+02 -4.5425e+01 1.1498e+05 3.4043e+02 1.5592e+00 
0.000 0.114 1.1768e+00 5.7486e+02 -4.5425e+01 1.1498e+05 3.4043e+02 1.5592e+00 
0.000 0.120 1.1768e+00 5.7486e+02 -4.5425e+01 1.1498e+05 3.4043e+02 1.5592e+00 
0.000 0.126 1.1768e+00 5.7486e+02 -4.5425e+01 1.1498e+05 3.4043e+02 1.5592e+00 
0.000 0.132 1.1768e+00 5.7486e+02 -4.5425e+01 1.1498e+05 3.4043e+02 1.5592e+00 
0.000 0.138 1.1768e+00 5.7486e+02 -4.5425e+01 1.1498e+05 3.4043e+02 1.5592e+00 
0.000 0.144 1.1768e+00 5.7486e+02 -4.5425e+01 1.1498e+05 3.4043e+02 1.5592e+00 
0.000 0.150 1.1768e+00 5.7486e+02 -4.5425e+01 1.1498e+05 3.4043e+02 1.5592e+00 
0.000 0.156 1.1768e+00 5.7486e+02 -4.5425e+01 1.1498e+05 3.4043e+02 1.5592e+00 
0.000 0.162 1.1768e+00 5.7486e+02 -4.5425e+01 1.1498e+05 3.4043e+02 1.5592e+00 
0.000 0.168 1.1768e+00 5.7486e+02 -4.5425e+01 1.1498e+05 3.4043e+02 1.5592e+00 
0.000 0.174 1.1768e+00 5.7486e+02 -4.5425e+01 1.1498e+05 3.4043e+02 1.5592e+00 
0.000 0.180 1.1768e+00 5.7486e+02 -4.5425e+01 1.1498e+05 3.4043e+02 1.5592e+00 
0.000 0.186 1.1768e+00 5.7486e+02 -4.5425e+01 1.1498e+05 3.4043e+02 1.5592e+00 
0.000 0.192 1.1768e+00 5.7486e+02 -4.5425e+01 1.1498e+05 3.4043e+02 1.5592e+00 
0.000 0.198 1.1768e+00 5.7486e+02 -4.5425e+01 1.1498e+05 3.4043e+02 1.5592e+00 
0.000 0.204 1.1768e+00 5.7486e+02 -4.5425e+01 1.1498e+05 3.4043e+02 1.5592e+00 
0.000 0.210 1.1768e+00 5.7486e+02 -4.5425e+01 1.1498e+05 3.4043e+02 1.5592e+00 
0.000 0.216 1.1768e+00 5.7486e+02 -4.5425e+01 1.1498e+05 3.4043e+02 1.5592e+00 
0.000 0.222 1.1768e+00 5.7486e+02 -4.5425e+01 1.1498e+05 3.4043e+02 1.5592e+00 
0.000 0.228 1.1768e+00 5.7486e+02 -4.5425e+01 1.1498e+05 3.4043e+02 1.5592e+00 
0.000 0.234 1.1768e+00 5.7486e+02 -4.5425e+01 1.1498e+05 3.4043e+02 1.5592e+00 
0.000 0.240 1.1768e+00 5.7486e+02 -4.5425e+01 1.1498e+05 3.4043e+02 1.5592e+00 
0.000 0.246 1.1768e+00 5.7486e+02 -4.5425e+01 1.1498e+05 3.4043e+02 1.5592e+00 
0.000 0.252 1.1768e+00 5.7486e+02 -4.5425e+01 1.1498e+05 3.4043e+02 1.5592e+00 
0.000 0.258 1.1768e+00 5.7486e+02 -4.5425e+01 1.1498e+05 3.4043e+02 1.5592e+00 
0.000 0.264 1.1768e+00 5.7486e+02 -4.5425e+01 1.1498e+05 3.4043e+02 1.5592e+00 
0.000 0.270 1.1768e+00 5.7486e+02 -4.5425e+01 1.1498e+05 3.4043e+02 1.5592e+00 
0.000 0.276 1.1768e+00 5.7486e+02 -4.5425e+01 1.1498e+05 3.4043e+02 1.5592e+00 
0.000 0.282 1.1768e+00 5.7486e+02 -4.5425e+01 1.1498e+05 3.4043e+02 1.5592e+00 
0.000 0.288 1.1768e+00 5.7486e+02 -4.5425e+01 1.1498e+05 3.4043e+02 1.5592e+00 
0.000 0.294 1.1768e+00 5.7486e+02 -4.5425e+01 1.1498e+05 3.4043e+02 1.5592e+00 
0.004 0.000 6.0652e-01 6.2494e+02 2.7445e+01 3.2487e+04 1.8663e+02 2.2843e+00 
0.004 0.006 6.0652e-01 6.2494e+02 8.4058e+01 3.1721e+04 1.8223e+02 2.3303e+00 
0.004 0.012 7.4910e-01 6.2494e+02 7.1363e+01 4.9002e+04 2.2792e+02 2.0785e+00 
0.004 0.018 7.4910e-01 6.2494e+02 7.1363e+01 4.9002e+04 2.2792e+02 2.0785e+00 
0.004 0.024 7.4910e-01 6.2494e+02 7.1363e+01 4.9002e+04 2.2792e+02 2.0785e+00 
0.004 0.030 7.4910e-01 6.2494e+02 7.1363e+01 4.9002e+04 2.2792e+02 2.0785e+00 
0.004 0.036 7.4910e-01 6.2494e+02 7.1363e+01 4.9002e+04 2.2792e+02 2.0785e+00 
0.004 0.042 7.4910e-01 6.2494e+02 7.1363e+01 4.9002e+04 2.2792e+02 2.0785e+00 
0.004 0.048 7.4910e-01 6.2494e+02 7.1363e+01 4.9002e+04 2.2792e+02 2.0785e+00 
0.004 0.054 7.4910e-01 6.2494e+02 7.1363e+01 4.9002e+04 2.2792e+02 2.0785e+00 
0.004 0.060 7.4910e-01 6.2494e+02 7.1363e+01 4.9002e+04 2.2792e+02 2.0785e+00 
0.004 0.066 7.4910e-01 6.2494e+02 7.1363e+01 4.9002e+04 2.2792e+02 2.0785e+00 
0.004 0.072 7.4910e-01 6.2494e+02 7.1363e+01 4.9002e+04 2.2792e+02 2.0785e+00 
0.004 0.078 7.4910e-01 6.2494e+02 7.1363e+01 4.9002e+04 2.2792e+02 2.0785e+00 
0.004 0.084 7.4910e-01 6.2494e+02 7.1363e+01 4.9002e+04 2.2792e+02 2.0785e+00 
0.004 0.090 7.4910e-01 6.2494e+02 7.1363e+01 4.9002e+04 2.2792e+02 2.0785e+00 
0.004 0.096 7.4910e-01 6.2494e+02 7.1363e+01 4.9002e+04 2.2792e+02 2.0785e+00 
0.004 0.102 7.4910e-01 6.2494e+02 7.1363e+01 4.9002e+04 2.2792e+02 2.0785e+00 
0.004 0.108 7.4910e-01 6.2494e+02 7.1363e+01 4.9002e+04 2.2792e+02 2.0785e+00 
0.004 0.114 7.4910e-01 6.2494e+02 7.1363e+01 4.9002e+04 2.2792e+02 2.0785e+00 
0.004 0.120 7.4910e-01 6.2494e+02 7.1363e+01 4.9002e+04 2.2792e+02 2.0785e+00 
0.004 0.126 7.4910e-01 6.2494e+02 7.1363e+01 4.9002e+04 2.2792e+02 2.0785e+00 
0.004 0.132 7.4910e-01 6.2494e+02 7.1363e+01 4.9002e+04 2.2792e+02 2.0785e+00 
0.004 0.138 7.4910e-01 6.2494e+02 7.1363e+01 4.9002e+04 2.2792e+02 2.0785e+00 
0.004 0.144 7.4910e-01 6.2494e+02 7.1363e+01 4.9002e+04 2.2792e+02 2.0785e+00 
0.004 0.150 7.4910e-01 6.2494e+02 7.1363e+01 4.9002e+04 2.2792e+02 2.0785e+00 
0.004 0.156 7.4910e-01 6.2494e+02 7.1363e+01 4.9002e+04 2.2792e+02 2.0785e+00 
0.004 0.162 7.4910e-01 6.2494e+02 7.1363e+01 4.9002e+04 2.2792e+02 2.0785e+00 
0.004 0.168 7.4910e-01 6.2494e+02 7.1363e+01 4.9002e+04 2.2792e+02 2.0785e+00 
0.004 0.174 7.4910e-01 6.2494e+02 7.1363e+01 4.9002e+04 2.2792e+02 2.0785e+00 
0.004 0.180 7.4910e-01 6.2494e+02 7.1363e+01 4.9002e+04 2.2792e+02 2.0785e+00 
0.004 0.186 7.4910e-01 6.2494e+02 7.1363e+01 4.9002e+04 2.2792e+02 2.0785e+00 
0.004 0.192 7.4910e-01 6.2494e+02 7.1363e+01 4.9002e+04 2.2792e+02 2.0785e+00 
0.004 0.198 7.4910e-01 6.2494e+02 7.1363e+01 4.9002e+04 2.2792e+02 2.0785e+00 
0.004 0.204 7.4910e-01 6.2494e+02 7.1363e+01 4.9002e+04 2.2792e+02 2.0785e+00 
0.004 0.210 7.4910e-01 6.2494e+02 7.1363e+01 4.9002e+04 2.2792e+02 2.0785e+00 
0.004 0.216 7.4910e-01 6.2494e+02 7.1363e+01 4.9002e+04 2.2792e+02 2.0785e+00 
0.004 0.222 7.4910e-01 6.2494e+02 7.1363e+01 4.9002e+04 2.2792e+02 2.0785e+00 
0.004 0.228 7.4910e-01 6.2494e+02 7.1363e+01 4.9002e+04 2.2792e+02 2.0785e+00 
0.004 0.234 7.4910e-01 6.2494e+02 7.1363e+01 4.9002e+04 2.2792e+02 2.0785e+00 
0.004 0.240 7.4910e-01 6.2494e+02 7.1363e+01 4.9002e+04 2.2792e+02 2.0785e+00 
0.004 0.246 7.4910e-01 6.2494e+02 7.1363e+01 4.9002e+04 2.2792e+02 2.0785e+00 
0.004 0.252 7.4910e-01 6.2494e+02 7.1363e+01 4.9002e+04 2.2792e+02 2.0785e+00 
0.004 0.258 7.4910e-01 6.2494e+02 7.1363e+01 4.9002e+04 2.2792e+02 2.0785e+00 
0.004 0.264 7.4910e-01 6.2494e+02 7.1363e+01 4.9002e+04 2.2792e+02 2.0785e+00 
0.004 0.270 7.4910e-01 6.2494e+02 7.1363e+01 4.9002e+04 2.2792e+02 2.0785e+00 
0.004 0.276 7.4910e-01 6.2494e+02 7.1363e+01 4.9002e+04 2.2792e+02 2.0785e+00 
0.004 0.282 7.4910e-01 6.2494e+02 7.1363e+01 4.9002e+04 2.2792e+02 2.0785e+00 
0.004 0.288 7.4910e-01 6.2494e+02 7.1363e+01 4.9002e+04 2.2792e+02 2.0785e+00 
0.004 0.294 7.4910e-01 6.2494e+02 7.1363e+01 4.9002e+04 2.2792e+02 2.0785e+00 
0.008 0.000 1.0343e+00 6.2494e+02 -3.5593e+01 8.3877e+04 2.8257e+02 1.8577e+00 
0.008 0.006 1.0343e+00 6.2494e+02 -2.3931e+00 8.4138e+04 2.8345e+02 1.8518e+00 
0.008 0.012 1.1768e+00 6.2494e+02 0.0000e+00 1.0132e+05 3.0000e+02 1.8000e+00 
0.008 0.018 1.1768e+00 6.2494e+02 0.0000e+00 1.0132e+05 3.0000e+02 1.8000e+00 
0.008 0.024 1.1768e+00 6.2494e+02 0.0000e+00 1.0132e+05 3.0000e+02 1.8000e+00 
0.008 0.030 1.1768e+00 6.2494e+02 0.0000e+00 1.0132e+05 3.0000e+02 1.8000e+00 
0.008 0.036 1.1768e+00 6.2494e+02 0.0000e+00 1.0132e+05 3.0000e+02 1.8000e+00 
0.008 0.042 1.1768e+00 6.2494e+02 0.0000e+00 1.0132e+05 3.0000e+02 1.8000e+00 
0.008 0.048 1.1768e+00 6.2494e+02 0.0000e+00 1.0132e+05 3.0000e+02 1.8000e+00 
0.008 0.054 1.1768e+00 6.2494e+02 0.0000e+00 1.0132e+05 3.0000e+02 1.8000e+00 
0.008 0.060 1.1768e+00 6.2494e+02 0.0000e+00 1.0132e+05 3.0000e+02 1.8000e+00 
0.008 0.066 1.1768e+00 6.2494e+02 0.0000e+00 1.0132e+05 3.0000e+02 1.8000e+00 
0.008 0.072 1.1768e+00 6.2494e+02 0.0000e+00 1.0132e+05 3.0000e+02 1.8000e+00 
0.008 0.078 1.1768e+00 6.2494e+02 0.0000e+00 1.0132e+05 3.0000e+02 1.8000e+00 
0.008 0.084 1.1768e+00 6.2494e+02 0.0000e+00 1.0132e+05 3.0000e+02 1.8000e+00 
0.008 0.090 1.1768e+00 6.2494e+02 0.0000e+00 1.0132e+05 3.0000e+02 1.8000e+00 
0.008 0.096 1.1768e+00 6.2494e+02 0.0000e+00 1.0132e+05 3.0000e+02 1.8000e+00 
0.008 0.102 1.1768e+00 6.2494e+02 0.0000e+00 1.0132e+05 3.0000e+02 1.8000e+00 
0.008 0.108 1.1768e+00 6.2494e+02 0.0000e+00 1.0132e+05 3.0000e+02 1.8000e+00 
0.008 0.114 1.1768e+00 6.2494e+02 0.0000e+00 1.0132e+05 3.0000e+02 1.8000e+00 
0.008 0.120 1.1768e+00 6.2494e+02 0.0000e+00 1.0132e+05 3.0000e+02 1.8000e+00 
0.008 0.126 1.1768e+00 6.2494e+02 0.0000e+00 1.0132e+05 3.0000e+02 1.8000e+00 
0.008 0.132 1.1768e+00 6.2494e+02 0.0000e+00 1.0132e+05 3.0000e+02 1.8000e+00 
0.008 0.138 1.1768e+00 6.2494e+02 0.0000e+00 1.0132e+05 3.0000e+02 1.8000e+00 
0.008 0.144 1.1768e+00 6.2494e+02 0.0000e+00 1.0132e+05 3.0000e+02 1.8000e+00 
0.008 0.150 1.1768e+00 6.2494e+02 0.0000e+00 1.0132e+05 3.0000e+02 1.8000e+00 
0.008 0.156 1.1768e+00 6.2494e+02 0.0000e+00 1.0132e+05 3.0000e+02 1.8000e+00 
0.008 0.162 1.1768e+00 6.2494e+02 0.0000e+00 1.0132e+05 3.0000e+02 1.8000e+00 
0.008 0.168 1.1768e+00 6.2494e+02 0.0000e+00 1.0132e+05 3.0000e+02 1.8000e+00 
0.008 0.174 1.1768e+00 6.2494e+02 0.0000e+00 1.0132e+05 3.0000e+02 1.8000e+00 
0.008 0.180 1.1768e+00 6.2494e+02 0.0000e+00 1.0132e+05 3.0000e+02 1.8000e+00 
0.008 0.186 1.1768e+00 6.2494e+02 0.0000e+00 1.0132e+05 3.0000e+02 1.8000e+00 
0.008 0.192 1.1768e+00 6.2494e+02 0.0000e+00 1.0132e+05 3.0000e+02 1.8000e+00 
0.008 0.198 1.1768e+00 6.2494e+02 0.0000e+00 1.0132e+05 3.0000e+02 1.8000e+00 
0.008 0.204 1.1768e+00 6.2494e+02 0.0000e+00 1.0132e+05 3.0000e+02 1.8000e+00 
0.008 0.210 1.1768e+00 6.2494e+02 0.0000e+00 1.0132e+05 3.0000e+02 1.8000e+00 
0.008 0.216 1.1768e+00 6.2494e+02 0.0000e+00 1.0132e+05 3.0000e+02 1.8000e+00 
0.008 0.222 1.1768e+00 6.2494e+02 0.0000e+00 1.0132e+05 3.0000e+02 1.8000e+00 
0.008 0.228 1.1768e+00 6.2494e+02 0.0000e+00 1.0132e+05 3.0000e+02 1.8000e+00 
0.008 0.234 1.1768e+00 6.2494e+02 0.0000e+00 1.0132e+05 3.0000e+02 1.8000e+00 
0.008 0.240 1.1768e+00 6.2494e+02 0.0000e+00 1.0132e+05 3.0000e+02 1.8000e+00 
0.008 0.246 1.1768e+00 6.2494e+02 0.0000e+00 1.0132e+05 3.0000e+02 1.8000e+00 
0.008 0.252 1.1768e+00 6.2494e+02 0.0000e+00 1.0132e+05 3.0000e+02 1.8000e+00 
0.008 0.258 1.1768e+00 6.2494e+02 0.0000e+00 1.0132e+05 3.0000e+02 1.8000e+00 
0.008 0.264 1.1768e+00 6.2494e+02 0.0000e+00 1.0132e+05 3.0000e+02 1.8000e+00 
0.008 0.270 1.1768e+00 6.2494e+02 0.0000e+00 1.0132e+05 3.0000e+02 1.8000e+00 
0.008 0.276 1.1768e+00 6.2494e+02 0.0000e+00 1.0132e+05 3.0000e+02 1.8000e+00 
0.008 0.282 1.1768e+00 6.2494e+02 0.0000e+00 1.0132e+05 3.0000e+02 1.8000e+00 
0.008 0.288 1.1768e+00 6.2494e+02 0.0000e+00 1.0132e+05 3.0000e+02 1.8000e+00 
0.008 0.294 1.1768e+00 6.2494e+02 0.0000e+00 1.0132e+05 3.0000e+02 1.8000e+00 
0.012 0.000 1.0343e+00 6.2494e+02 -3.5593e+01 8.3877e+04 2.8257e+02 1.8577e+00 
0.012 0.006 1.0343e+00 6.2494e+02 -2.3931e+00 8.4138e+04 2.8345e+02 1.8518e+00 
0.012 0.012 1.1768e+00 6.2494e+02 0.0000e+00 1.0132e+05 3.0000e+02 1.8000e+00 
0.012 0.018 1.1768e+00 6.2494e+02 0.0000e+00 1.0132e+05 3.0000e+02 1.8000e+00 
0.012 0.024 1.1768e+00 6.2494e+02 0.0000e+00 1.0132e+05 3.0000e+02 1.8000e+00 
0.012 0.030 1.1768e+00 6.2494e+02 0.0000e+00 1.0132e+05 3.0000e+02 1.8000e+00 
0.012 0.036 1.1768e+00 6.2494e+02 0.0000e+00 1.0132e+05 3.0000e+02 1.8000e+00 
0.012 0.042 1.1768e+00 6.2494e+02 0.0000e+00 1.0132e+05 3.0000e+02 1.8000e+00 
0.012 0.048 1.1768e+00 6.2494e+02 0.0000e+00 1.0132e+05 3.0000e+02 1.8000e+00 
0.012 0.054 1.1768e+00 6.2494e+02 0.0000e+00 1.0132e+05 3.0000e+02 1.8000e+00 
0.012 0.060 1.1768e+00 6.2494e+02 0.0000e+00 1.0132e+05 3.0000e+02 1.8000e+00 
0.012 0.066 1.1768e+00 6.2494e+02 0.0000e+00 1.0132e+05 3.0000e+02 1.8000e+00 
0.012 0.072 1.1768e+00 6.2494e+02 0.0000e+00 1.0132e+05 3.0000e+02 1.8000e+00 
0.012 0.078 1.1768e+00 6.2494e+02 0.0000e+00 1.0132e+05 3.0000e+02 1.8000e+00 
0.012 0.084 1.1768e+00 6.2494e+02 0.0000e+00 1.0132e+05 3.0000e+02 1.8000e+00 
0.012 0.090 1.1768e+00 6.2494e+02 0.0000e+00 1.0132e+05 3.0000e+02 1.8000e+00 
0.012 0.096 1.1768e+00 6.2494e+02 0.0000e+00 1.0132e+05 3.0000e+02 1.8000e+00 
0.012 0.102 1.1768e+00 6.2494e+02 0.0000e+00 1.0132e+05 3.0000e+02 1.8000e+00 
0.012 0.108 1.1768e+00 6.2494e+02 0.0000e+00 1.0132e+05 3.0000e+02 1.8000e+00 
0.012 0.114 1.1768e+00 6.2494e+02 0.0000e+00 1.0132e+05 3.0000e+02 1.8000e+00 
0.012 0.120 1.1768e+00 6.2494e+02 0.0000e+00 1.0132e+05 3.0000e+02 1.8000e+00 
0.012 0.126 1.1768e+00 6.2494e+02 0.0000e+00 1.0132e+05 3.0000e+02 1.8000e+00 
0.012 0.132 1.1768e+00 6.2494e+02 0.0000e+00 1.0132e+05 3.0000e+02 1.8000e+00 
0.012 0.138 1.1768e+00 6.2494e+02 0.0000e+00 1.0132e+05 3.0000e+02 1.8000e+00 
0.012 0.144 1.1768e+00 6.2494e+02 0.0000e+00 1.0132e+05 3.0000e+02 1.8000e+00 
0.012 0.150 1.1768e+00 6.2494e+02 0.0000e+00 1.0132e+05 3.0000e+02 1.8000e+00 
0.012 0.156 1.1768e+00 6.2494e+02 0.0000e+00 1.0132e+05 3.0000e+02 1.8000e+00 
0.012 0.162 1.1768e+00 6.2494e+02 0.0000e+00 1.0132e+05 3.0000e+02 1.8000e+00 
0.012 0.168 1.1768e+00 6.2494e+02 0.0000e+00 1.0132e+05 3.0000e+02 1.8000e+00 
0.012 0.174 1.1768e+00 6.2494e+02 0.0000e+00 1.0132e+05 3.0000e+02 1.8000e+00 
0.012 0.180 1.1768e+00 6.2494e+02 0.0000e+00 1.0132e+05 3.0000e+02 1.8000e+00 
0.012 0.186 1.1768e+00 6.2494e+02 0.0000e+00 1.0132e+05 3.0000e+02 1.8000e+00 
0.012 0.192 1.1768e+00 6.2494e+02 0.0000e+00 1.0132e+05 3.0000e+02 1.8000e+00 
0.012 0.198 1.1768e+00 6.2494e+02 0.0000e+00 1.0132e+05 3.0000e+02 1.8000e+00 
0.012 0.204 1.1768e+00 6.2494e+02 0.0000e+00 1.0132e+05 3.0000e+02 1.8000e+00 
0.012 0.210 1.1768e+00 6.2494e+02 0.0000e+00 1.0132e+05 3.0000e+02 1.8000e+00 
0.012 0.216 1.1768e+00 6.2494e+02 0.0000e+00 1.0132e+05 3.0000e+02 1.8000e+00 
0.012 0.222 1.1768e+00 6.2494e+02 0.0000e+00 1.0132e+05 3.0000e+02 1.8000e+00 
0.012 0.228 1.1768e+00 6.2494e+02 0.0000e+00 1.0132e+05 3.0000e+02 1.8000e+00 
0.012 0.234 1.1768e+00 6.2494e+02 0.0000e+00 1.0132e+05 3.0000e+02 1.8000e+00 
0.012 0.240 1.1768e+00 6.2494e+02 0.0000e+00 1.0132e+05 3.0000e+02 1.8000e+00 
0.012 0.246 1.1768e+00 6.2494e+02 0.0000e+00 1.0132e+05 3.0000e+02 1.8000e+00 
0.012 0.252 1.1768e+00 6.2494e+02 0.0000e+00 1.0132e+05 3.0000e+02 1.8000e+00 
0.012 0.258 1.1768e+00 6.2494e+02 0.0000e+00 1.0132e+05 3.0000e+02 1.8000e+00 
0.012 0.264 1.1768e+00 6.2494e+02 0.0000e+00 1.0132e+05 3.0000e+02 1.8000e+00 
0.012 0.270 1.1768e+00 6.2494e+02 0.0000e+00 1.0132e+05 3.0000e+02 1.8000e+00 
0.012 0.276 1.1768e+00 6.2494e+02 0.0000e+00 1.0132e+05 3.0000e+02 1.8000e+00 
0.012 0.282 1.1768e+00 6.2494e+02 0.0000e+00 1.0132e+05 3.0000e+02 1.8000e+00 
0.012 0.288 1.1768e+00 6.2494e+02 0.0000e+00 1.0132e+05 3.0000e+02 1.8000e+00 
0.012 0.294 1.1768e+00 6.2494e+02 0.0000e+00 1.0132e+05 3.0000e+02 1.8000e+00 
0.016 0.000 1.0343e+00 6.2494e+02 -3.5593e+01 8.3877e+04 2.8257e+02 1.8577e+00 
0.016 0.006 1.0343e+00 6.2494e+02 -2.3931e+00 8.4138e+04 2.8345e+02 1.8518e+00 
0.016 0.012 1.1768e+00 6.2494e+02 0.0000e+00 1.0132e+05 3.0000e+02 1.8000e+00 
0.016 0.018 1.1768e+00 6.2494e+02 0.0000e+00 1.0132e+05 3.0000e+02 1.8000e+00 
0.016 0.024 1.1768e+00 6.2494e+02 0.0000e+00 1.0132e+05 3.0000e+02 1.8000e+00 
0.016 0.030 1.1768e+00 6.2494e+02 0.0000e+00 1.0132e+05 3.0000e+02 1.8000e+00 
0.016 0.036 1.1768e+00 6.2494e+02 0.0000e+00 1.0132e+05 3.0000e+02 1.8000e+00 
0.016 0.042 1.1768e+00 6.2494e+02 0.0000e+00 1.0132e+05 3.0000e+02 1.8000e+00 
0.016 0.048 1.1768e+00 6.2494e+02 0.0000e+00 1.0132e+05 3.0000e+02 1.8000e+00 
0.016 0.054 1.1768e+00 6.2494e+02 0.0000e+00 1.0132e+05 3.0000e+02 1.8000e+00 
0.016 0.060 1.1768e+00 6.2494e+02 0.0000e+00 1.0132e+05 3.0000e+02 1.8000e+00 
0.016 0.066 1.1768e+00 6.2494e+02 0.0000e+00 1.0132e+05 3.0000e+02 1.8000e+00 
0.016 0.072 1.1768e+00 6.2494e+02 0.0000e+00 1.0132e+05 3.0000e+02 1.8000e+00 
0.016 0.078 1.1768e+00 6.2494e+02 0.0000e+00 1.0132e+05 3.0000e+02 1.8000e+00 
0.016 0.084 1.1768e+00 6.2494e+02 0.0000e+00 1.0132e+05 3.0000e+02 1.8000e+00 
0.016 0.090 1.1768e+00 6.2494e+02 0.0000e+00 1.0132e+05 3.0000e+02 1.8000e+00 
0.016 0.096 1.1768e+00 6.2494e+02 0.0000e+00 1.0132e+05 3.0000e+02 1.8000e+00 
0.016 0.102 1.1768e+00 6.2494e+02 0.0000e+00 1.0132e+05 3.0000e+02 1.8000e+00 
0.016 0.108 1.1768e+00 6.2494e+02 0.0000e+00 1.0132e+05 3.0000e+02 1.8000e+00 
0.016 0.114 1.1768e+00 6.2494e+02 0.0000e+00 1.0132e+05 3.0000e+02 1.8000e+00 
0.016 0.120 1.1768e+00 6.2494e+02 0.0000e+00 1.0132e+05 3.0000e+02 1.8000e+00 
0.016 0.126 1.1768e+00 6.2494e+02 0.0000e+00 1.0132e+05 3.0000e+02 1.8000e+00 
0.016 0.132 1.1768e+00 6.2494e+02 0.0000e+00 1.0132e+05 3.0000e+02 1.8000e+00 
0.016 0.138 1.1768e+00 6.2494e+02 0.0000e+00 1.0132e+05 3.0000e+02 1.8000e+00 
0.016 0.144 1.1768e+00 6.2494e+02 0.0000e+00 1.0132e+05 3.0000e+02 1.8000e+00 
0.016 0.150 1.1768e+00 6.2494e+02 0.0000e+00 1.0132e+05 3.0000e+02 1.8000e+00 
0.016 0.156 1.1768e+00 6.2494e+02 0.0000e+00 1.0132e+05 3.0000e+02 1.8000e+00 
0.016 0.162 1.1768e+00 6.2494e+02 0.0000e+00 1.0132e+05 3.0000e+02 1.8000e+00 
0.016 0.168 1.1768e+00 6.2494e+02 0.0000e+00 1.0132e+05 3.0000e+02 1.8000e+00 
0.016 0.174 1.1768e+00 6.2494e+02 0.0000e+00 1.0132e+05 3.0000e+02 1.8000e+00 
0.016 0.180 1.1768e+00 6.2494e+02 0.0000e+00 1.0132e+05 3.0000e+02 1.8000e+00 
0.016 0.186 1.1768e+00 6.2494e+02 0.0000e+00 1.0132e+05 3.0000e+02 1.8000e+00 
0.016 0.192 1.1768e+00 6.2494e+02 0.0000e+00 1.0132e+05 3.0000e+02 1.8000e+00 
0.016 0.198 1.1768e+00 6.2494e+02 0.0000e+00 1.0132e+05 3.0000e+02 1.8000e+00 
0.016 0.204 1.1768e+00 6.2494e+02 0.0000e+00 1.0132e+05 3.0000e+02 1.8000e+00 
0.016 0.210 1.1768e+00 6.2494e+02 0.0000e+00 1.0132e+05 3.0000e+02 1.8000e+00 
0.016 0.216 1.1768e+00 6.2494e+02 0.0000e+00 1.0132e+05 3.0000e+02 1.8000e+00 
0.016 0.222 1.1768e+00 6.2494e+02 0.0000e+00 1.0132e+05 3.0000e+02 1.8000e+00 
0.016 0.228 1.1768e+00 6.2494e+02 0.0000e+00 1.0132e+05 3.0000e+02 1.8000e+00 
0.016 0.234 1.1768e+00 6.2494e+02 0.0000e+00 1.0132e+05 3.0000e+02 1.8000e+00 
0.016 0.240 1.1768e+00 6.2494e+02 0.0000e+00 1.0132e+05 3.0000e+02 1.8000e+00 
0.016 0.246 1.1768e+00 6.2494e+02 0.0000e+00 1.0132e+05 3.0000e+02 1.8000e+00 
0.016 0.252 1.1768e+00 6.2494e+02 0.0000e+00 1.0132e+05 3.0000e+02 1.8000e+00 
0.016 0.258 1.1768e+00 6.2494e+02 0.0000e+00 1.0132e+05 3.0000e+02 1.8000e+00 
0.016 0.264 1.1768e+00 6.2494e+02 0.0000e+00 1.0132e+05 3.0000e+02 1.8000e+00 
0.016 0.270 1.1768e+00 6.2494e+02 0.0000e+00 1.0132e+05 3.0000e+02 1.8000e+00 
0.016 0.276 1.1768e+00 6.2494e+02 0.0000e+00 1.0132e+05 3.0000e+02 1.8000e+00 
0.016 0.282 1.1768e+00 6.2494e+02 0.0000e+00 1.0132e+05 3.0000e+02 1.8000e+00 
0.016 0.288 1.1768e+00 6.2494e+02 0.0000e+00 1.0132e+05 3.0000e+02 1.8000e+00 
0.016 0.294 1.1768e+00 6.2494e+02 0.0000e+00 1.0132e+05 3.0000e+02 1.8000e+00 
0.020 0.000 1.0343e+00 6.2494e+02 -3.5593e+01 8.3877e+04 2.8257e+02 1.8577e+00 
0.020 0.006 1.0343e+00 6.2494e+02 -2.3931e+00 8.4138e+04 2.8345e+02 1.8518e+00 
0.020 0.012 1.1768e+00 6.2494e+02 0.0000e+00 1.0132e+05 3.0000e+02 1.8000e+00 
0.020 0.018 1.1768e+00 6.2494e+02 0.0000e+00 1.0132e+05 3.0000e+02 1.8000e+00 
0.020 0.024 1.1768e+00 6.2494e+02 0.0000e+00 1.0132e+05 3.0000e+02 1.8000e+00 
0.020 0.030 1.1768e+00 6.2494e+02 0.0000e+00 1.0132e+05 3.0000e+02 1.8000e+00 
0.020 0.036 1.1768e+00 6.2494e+02 0.0000e+00 1.0132e+05 3.0000e+02 1.8000e+00 
0.020 0.042 1.1768e+00 6.2494e+02 0.0000e+00 1.0132e+05 3.0000e+02 1.8000e+00 
0.020 0.048 1.1768e+00 6.2494e+02 0.0000e+00 1.0132e+05 3.0000e+02 1.8000e+00 
0.020 0.054 1.1768e+00 6.2494e+02 0.0000e+00 1.0132e+05 3.0000e+02 1.8000e+00 
0.020 0.060 1.1768e+00 6.2494e+02 0.0000e+00 1.0132e+05 3.0000e+02 1.8000e+00 
0.020 0.066 1.1768e+00 6.2494e+02 0.0000e+00 1.0132e+05 3.0000e+02 1.8000e+00 
0.020 0.072 1.1768e+00 6.2494e+02 0.0000e+00 1.0132e+05 3.0000e+02 1.8000e+00 
0.020 0.078 1.1768e+00 6.2494e+02 0.0000e+00 1.0132e+05 3.0000e+02 1.8000e+00 
0.020 0.084 1.1768e+00 6.2494e+02 0.0000e+00 1.0132e+05 3.0000e+02 1.8000e+00 
0.020 0.090 1.1768e+00 6.2494e+02 0.0000e+00 1.0132e+05 3.0000e+02 1.8000e+00 
0.020 0.096 1.1768e+00 6.2494e+02 0.0000e+00 1.0132e+05 3.0000e+02 1.8000e+00 
0.020 0.102 1.1768e+00 6.2494e+02 0.0000e+00 1.0132e+05 3.0000e+02 1.8000e+00 
0.020 0.108 1.1768e+00 6.2494e+02 0.0000e+00 1.0132e+05 3.0000e+02 1.8000e+00 
0.020 0.114 1.1768e+00 6.2494e+02 0.0000e+00 1.0132e+05 3.0000e+02 1.8000e+00 
0.020 0.120 1.1768e+00 6.2494e+02 0.0000e+00 1.0132e+05 3.0000e+02 1.8000e+00 
0.020 0.126 1.1768e+00 6.2494e+02 0.0000e+00 1.0132e+05 3.0000e+02 1.8000e+00 
0.020 0.132 1.1768e+00 6.2494e+02 0.0000e+00 1.0132e+05 3.0000e+02 1.8000e+00 
0.020 0.138 1.1768e+00 6.2494e+02 0.0000e+00 1.0132e+05 3.0000e+02 1.8000e+00 
0.020 0.144 1.1768e+00 6.2494e+02 0.0000e+00 1.0132e+05 3.0000e+02 1.8000e+00 
0.020 0.150 1.1768e+00 6.2494e+02 0.0000e+00 1.0132e+05 3.0000e+02 1.8000e+00 
0.020 0.156 1.1768e+00 6.2494e+02 0.0000e+00 1.0132e+05 3.0000e+02 1.8000e+00 
0.020 0.162 1.1768e+00 6.2494e+02 0.0000e+00 1.0132e+05 3.0000e+02 1.8000e+00 
0.020 0.168 1.1768e+00 6.2494e+02 0.0000e+00 1.0132e+05 3.0000e+02 1.8000e+00 
0.020 0.174 1.1768e+00 6.2494e+02 0.0000e+00 1.0132e+05 3.0000e+02 1.8000e+00 
0.020 0.180 1.1768e+00 6.2494e+02 0.0000e+00 1.0132e+05 3.0000e+02 1.8000e+00 
0.020 0.186 1.1768e+00 6.2494e+02 0.0000e+00 1.0132e+05 3.0000e+02 1.8000e+00 
0.020 0.192 1.1768e+00 6.2494e+02 0.0000e+00 1.0132e+05 3.0000e+02 1.8000e+00 
0.020 0.198 1.1768e+00 6.2494e+02 0.0000e+00 1.0132e+05 3.0000e+02 1.8000e+00 
0.020 0.204 1.1768e+00 6.2494e+02 0.0000e+00 1.0132e+05 3.0000e+02 1.8000e+00 
0.020 0.210 1.1768e+00 6.2494e+02 0.0000e+00 1.0132e+05 3.0000e+02 1.8000e+00 
0.020 0.216 1.1768e+00 6.2494e+02 0.0000e+00 1.0132e+05 3.0000e+02 1.8000e+00 
0.020 0.222 1.1768e+00 6.2494e+02 0.0000e+00 1.0132e+05 3.0000e+02 1.8000e+00 
0.020 0.228 1.1768e+00 6.2494e+02 0.0000e+00 1.0132e+05 3.0000e+02 1.8000e+00 
0.020 0.234 1.1768e+00 6.2494e+02 0.0000e+00 1.0132e+05 3.0000e+02 1.8000e+00 
0.020 0.240 1.1768e+00 6.2494e+02 0.0000e+00 1.0132e+05 3.0000e+02 1.8000e+00 
0.020 0.246 1.1768e+00 6.2494e+02 0.0000e+00 1.0132e+05 3.0000e+02 1.8000e+00 
0.020 0.252 1.1768e+00 6.2494e+02 0.0000e+00 1.0132e+05 3.0000e+02 1.8000e+00 
0.020 0.258 1.1768e+00 6.2494e+02 0.0000e+00 1.0132e+05 3.0000e+02 1.8000e+00 
0.020 0.264 1.1768e+00 6.2494e+02 0.0000e+00 1.0132e+05 3.0000e+02 1.8000e+00 
0.020 0.270 1.1768e+00 6.2494e+02 0.0000e+00 1.0132e+05 3.0000e+02 1.8000e+00 
0.020 0.276 1.1768e+00 6.2494e+02 0.0000e+00 1.0132e+05 3.0000e+02 1.8000e+00 
0.020 0.282 1.1768e+00 6.2494e+02 0.0000e+00 1.0132e+05 3.0000e+02 1.8000e+00 
0.020 0.288 1.1768e+00 6.2494e+02 0.0000e+00 1.0132e+05 3.0000e+02 1.8000e+00 
0.020 0.294 1.1768e+00 6.2494e+02 0.0000e+00 1.0132e+05 3.0000e+02 1.8000e+00 
0.024 0.000 1.0343e+00 6.2494e+02 -3.5593e+01 8.3877e+04 2.8257e+02 1.8577e+00 
0.024 0.006 1.0343e+00 6.2494e+02 -2.3931e+00 8.4138e+04 2.8345e+02 1.8518e+00 
0.024 0.012 1.1768e+00 6.2494e+02 0.0000e+00 1.0132e+05 3.0000e+02 1.8000e+00 
0.024 0.018 1.1768e+00 6.2494e+02 0.0000e+00 1.0132e+05 3.0000e+02 1.8000e+00 
0.024 0.024 1.1768e+00 6.2494e+02 0.0000e+00 1.0132e+05 3.0000e+02 1.8000e+00 
0.024 0.030 1.1768e+00 6.2494e+02 0.0000e+00 1.0132e+05 3.0000e+02 1.8000e+00 
0.024 0.036 1.1768e+00 6.2494e+02 0.0000e+00 1.0132e+05 3.0000e+02 1.8000e+00 
0.024 0.042 1.1768e+00 6.2494e+02 0.0000e+00 1.0132e+05 3.0000e+02 1.8000e+00 
0.024 0.048 1.1768e+00 6.2494e+02 0.0000e+00 1.0132e+05 3.0000e+02 1.8000e+00 
0.024 0.054 1.1768e+00 6.2494e+02 0.0000e+00 1.0132e+05 3.0000e+02 1.8000e+00 
0.024 0.060 1.1768e+00 6.2494e+02 0.0000e+00 1.0132e+05 3.0000e+02 1.8000e+00 
0.024 0.066 1.1768e+00 6.2494e+02 0.0000e+00 1.0132e+05 3.0000e+02 1.8000e+00 
0.024 0.072 1.1768e+00 6.2494e+02 0.0000e+00 1.0132e+05 3.0000e+02 1.8000e+00 
0.024 0.078 1.1768e+00 6.2494e+02 0.0000e+00 1.0132e+05 3.0000e+02 1.8000e+00 
0.024 0.084 1.1768e+00 6.2494e+02 0.0000e+00 1.0132e+05 3.0000e+02 1.8000e+00 
0.024 0.090 1.1768e+00 6.2494e+02 0.0000e+00 1.0132e+05 3.0000e+02 1.8000e+00 
0.024 0.096 1.1768e+00 6.2494e+02 0.0000e+00 1.0132e+05 3.0000e+02 1.8000e+00 
0.024 0.102 1.1768e+00 6.2494e+02 0.0000e+00 1.0132e+05 3.0000e+02 1.8000e+00 
0.024 0.108 1.1768e+00 6.2494e+02 0.0000e+00 1.0132e+05 3.0000e+02 1.8000e+00 
0.024 0.114 1.1768e+00 6.2494e+02 0.0000e+00 1.0132e+05 3.0000e+02 1.8000e+00 
0.024 0.120 1.1768e+00 6.2494e+02 0.0000e+00 1.0132e+05 3.0000e+02 1.8000e+00 
0.024 0.126 1.1768e+00 6.2494e+02 0.0000e+00 1.0132e+05 3.0000e+02 1.8000e+00 
0.024 0.132 1.1768e+00 6.2494e+02 0.0000e+00 1.0132e+05 3.0000e+02 1.8000e+00 
0.024 0.138 1.1768e+00 6.2494e+02 0.0000e+00 1.0132e+05 3.0000e+02 1.8000e+00 
0.024 0.144 1.1768e+00 6.2494e+02 0.0000e+00 1.0132e+05 3.0000e+02 1.8000e+00 
0.024 0.150 1.1768e+00 6.2494e+02 0.0000e+00 1.0132e+05 3.0000e+02 1.8000e+00 
0.024 0.156 1.1768e+00 6.2494e+02 0.0000e+00 1.0132e+05 3.0000e+02 1.8000e+00 
0.024 0.162 1.1768e+00 6.2494e+02 0.0000e+00 1.0132e+05 3.0000e+02 1.8000e+00 
0.024 0.168 1.1768e+00 6.2494e+02 0.0000e+00 1.0132e+05 3.0000e+02 1.8000e+00 
0.024 0.174 1.1768e+00 6.2494e+02 0.0000e+00 1.0132e+05 3.0000e+02 1.8000e+00 
0.024 0.180 1.1768e+00 6.2494e+02 0.0000e+00 1.0132e+05 3.0000e+02 1.8000e+00 
0.024 0.186 1.1768e+00 6.2494e+02 0.0000e+00 1.0132e+05 3.0000e+02 1.8000e+00 
0.024 0.192 1.1768e+00 6.2494e+02 0.0000e+00 1.0132e+05 3.0000e+02 1.8000e+00 
0.024 0.198 1.1768e+00 6.2494e+02 0.0000e+00 1.0132e+05 3.0000e+02 1.8000e+00 
0.024 0.204 1.1768e+00 6.2494e+02 0.0000e+00 1.0132e+05 3.0000e+02 1.8000e+00 
0.024 0.210 1.1768e+00 6.2494e+02 0.0000e+00 1.0132e+05 3.0000e+02 1.8000e+00 
0.024 0.216 1.1768e+00 6.2494e+02 0.0000e+00 1.0132e+05 3.0000e+02 1.8000e+00 
0.024 0.222 1.1768e+00 6.2494e+02 0.0000e+00 1.0132e+05 3.0000e+02 1.8000e+00 
0.024 0.228 1.1768e+00 6.2494e+02 0.0000e+00 1.0132e+05 3.0000e+02 1.8000e+00 
0.024 0.234 1.1768e+00 6.2494e+02 0.0000e+00 1.0132e+05 3.0000e+02 1.8000e+00 
0.024 0.240 1.1768e+00 6.2494e+02 0.0000e+00 1.0132e+05 3.0000e+02 1.8000e+00 
0.024 0.246 1.1768e+00 6.2494e+02 0.0000e+00 1.0132e+05 3.0000e+02 1.8000e+00 
0.024 0.252 1.1768e+00 6.2494e+02 0.0000e+00 1.0132e+05 3.0000e+02 1.8000e+00 
0.024 0.258 1.1768e+00 6.2494e+02 0.0000e+00 1.0132e+05 3.0000e+02 1.8000e+00 
0.024 0.264 1.1768e+00 6.2494e+02 0.0000e+00 1.0132e+05 3.0000e+02 1.8000e+00 
0.024 0.270 1.1768e+00 6.2494e+02 0.0000e+00 1.0132e+05 3.0000e+02 1.8000e+00 
0.024 0.276 1.1768e+00 6.2494e+02 0.0000e+00 1.0132e+05 3.0000e+02 1.8000e+00 
0.024 0.282 1.1768e+00 6.2494e+02 0.0000e+00 1.0132e+05 3.0000e+02 1.8000e+00 
0.024 0.288 1.1768e+00 6.2494e+02 0.0000e+00 1.0132e+05 3.0000e+02 1.8000e+00 
0.024 0.294 1.1768e+00 6.2494e+02 0.0000e+00 1.0132e+05 3.0000e+02 1.8000e+00 
0.028 0.000 1.0343e+00 6.2494e+02 -3.5593e+01 8.3877e+04 2.8257e+02 1.8577e+00 
0.028 0.006 1.0343e+00 6.2494e+02 -2.3931e+00 8.4138e+04 2.8345e+02 1.8518e+00 
0.028 0.012 1.1768e+00 6.2494e+02 0.0000e+00 1.0132e+05 3.0000e+02 1.8000e+00 
0.028 0.018 1.1768e+00 6.2494e+02 0.0000e+00 1.0132e+05 3.0000e+02 1.8000e+00 
0.028 0.024 1.1768e+00 6.2494e+02 0.0000e+00 1.0132e+05 3.0000e+02 1.8000e+00 
0.028 0.030 1.1768e+00 6.2494e+02 0.0000e+00 1.0132e+05 3.0000e+02 1.8000e+00 
0.028 0.036 1.1768e+00 6.2494e+02 0.0000e+00 1.0132e+05 3.0000e+02 1.8000e+00 
0.028 0.042 1.1768e+00 6.2494e+02 0.0000e+00 1.0132e+05 3.0000e+02 1.8000e+00 
0.028 0.048 1.1768e+00 6.2494e+02 0.0000e+00 1.0132e+05 3.0000e+02 1.8000e+00 
0.028 0.054 1.1768e+00 6.2494e+02 0.0000e+00 1.0132e+05 3.0000e+02 1.8000e+00 
0.028 0.060 1.1768e+00 6.2494e+02 0.0000e+00 1.0132e+05 3.0000e+02 1.8000e+00 
0.028 0.066 1.1768e+00 6.2494e+02 0.0000e+00 1.0132e+05 3.0000e+02 1.8000e+00 
0.028 0.072 1.1768e+00 6.2494e+02 0.0000e+00 1.0132e+05 3.0000e+02 1.8000e+00 
0.028 0.078 1.1768e+00 6.2494e+02 0.0000e+00 1.0132e+05 3.0000e+02 1.8000e+00 
0.028 0.084 1.1768e+00 6.2494e+02 0.0000e+00 1.0132e+05 3.0000e+02 1.8000e+00 
0.028 0.090 1.1768e+00 6.2494e+02 0.0000e+00 1.0132e+05 3.0000e+02 1.8000e+00 
0.028 0.096 1.1768e+00 6.2494e+02 0.0000e+00 1.0132e+05 3.0000e+02 1.8000e+00 
0.028 0.102 1.1768e+00 6.2494e+02 0.0000e+00 1.0132e+05 3.0000e+02 1.8000e+00 
0.028 0.108 1.1768e+00 6.2494e+02 0.0000e+00 1.0132e+05 3.0000e+02 1.8000e+00 
0.028 0.114 1.1768e+00 6.2494e+02 0.0000e+00 1.0132e+05 3.0000e+02 1.8000e+00 
0.028 0.120 1.1768e+00 6.2494e+02 0.0000e+00 1.0132e+05 3.0000e+02 1.8000e+00 
0.028 0.126 1.1768e+00 6.2494e+02 0.0000e+00 1.0132e+05 3.0000e+02 1.8000e+00 
0.028 0.132 1.1768e+00 6.2494e+02 0.0000e+00 1.0132e+05 3.0000e+02 1.8000e+00 
0.028 0.138 1.1768e+00 6.2494e+02 0.0000e+00 1.0132e+05 3.0000e+02 1.8000e+00 
0.028 0.144 1.1768e+00 6.2494e+02 0.0000e+00 1.0132e+05 3.0000e+02 1.8000e+00 
0.028 0.150 1.1768e+00 6.2494e+02 0.0000e+00 1.0132e+05 3.0000e+02 1.8000e+00 
0.028 0.156 1.1768e+00 6.2494e+02 0.0000e+00 1.0132e+05 3.0000e+02 1.8000e+00 