Title="Field"
Variables="x","y","rho","u","v","p","T","Ma"
Zone T="zone1" i=250,j=50,f=point
0.000 0.000 1.0343e+00 5.6796e+02 -8.7283e+01 9.6622e+04 3.2551e+02 1.5889e+00 
0.000 0.006 1.0649e+00 5.7613e+02 -4.1429e+01 1.0016e+05 3.2772e+02 1.5918e+00 
0.000 0.012 1.1703e+00 5.7381e+02 -5.1008e+01 1.1410e+05 3.3972e+02 1.5592e+00 
0.000 0.018 1.1579e+00 5.7501e+02 -4.8841e+01 1.1177e+05 3.3633e+02 1.5698e+00 
0.000 0.024 1.1792e+00 5.7474e+02 -4.4956e+01 1.1549e+05 3.4127e+02 1.5568e+00 
0.000 0.030 1.1726e+00 5.7485e+02 -4.7013e+01 1.1413e+05 3.3913e+02 1.5625e+00 
0.000 0.036 1.1782e+00 5.7487e+02 -4.4780e+01 1.1529e+05 3.4094e+02 1.5579e+00 
0.000 0.042 1.1756e+00 5.7484e+02 -4.6035e+01 1.1471e+05 3.3999e+02 1.5603e+00 
0.000 0.048 1.1774e+00 5.7488e+02 -4.5112e+01 1.1511e+05 3.4065e+02 1.5587e+00 
0.000 0.054 1.1764e+00 5.7485e+02 -4.5654e+01 1.1489e+05 3.4028e+02 1.5596e+00 
0.000 0.060 1.1771e+00 5.7487e+02 -4.5299e+01 1.1503e+05 3.4052e+02 1.5590e+00 
0.000 0.066 1.1767e+00 5.7486e+02 -4.5512e+01 1.1495e+05 3.4037e+02 1.5593e+00 
0.000 0.072 1.1769e+00 5.7487e+02 -4.5379e+01 1.1500e+05 3.4046e+02 1.5591e+00 
0.000 0.078 1.1768e+00 5.7486e+02 -4.5459e+01 1.1497e+05 3.4041e+02 1.5592e+00 
0.000 0.084 1.1769e+00 5.7487e+02 -4.5410e+01 1.1499e+05 3.4044e+02 1.5592e+00 
0.000 0.090 1.1768e+00 5.7486e+02 -4.5440e+01 1.1498e+05 3.4042e+02 1.5592e+00 
0.000 0.096 1.1768e+00 5.7486e+02 -4.5421e+01 1.1498e+05 3.4043e+02 1.5592e+00 
0.000 0.102 1.1768e+00 5.7486e+02 -4.5433e+01 1.1498e+05 3.4043e+02 1.5592e+00 
0.000 0.108 1.1768e+00 5.7486e+02 -4.5426e+01 1.1498e+05 3.4043e+02 1.5592e+00 
0.000 0.114 1.1768e+00 5.7486e+02 -4.5430e+01 1.1498e+05 3.4043e+02 1.5592e+00 
0.000 0.120 1.1768e+00 5.7486e+02 -4.5427e+01 1.1498e+05 3.4043e+02 1.5592e+00 
0.000 0.126 1.1768e+00 5.7486e+02 -4.5429e+01 1.1498e+05 3.4043e+02 1.5592e+00 
0.000 0.132 1.1768e+00 5.7486e+02 -4.5428e+01 1.1498e+05 3.4043e+02 1.5592e+00 
0.000 0.138 1.1768e+00 5.7486e+02 -4.5429e+01 1.1498e+05 3.4043e+02 1.5592e+00 
0.000 0.144 1.1768e+00 5.7486e+02 -4.5428e+01 1.1498e+05 3.4043e+02 1.5592e+00 
0.000 0.150 1.1768e+00 5.7486e+02 -4.5428e+01 1.1498e+05 3.4043e+02 1.5592e+00 
0.000 0.156 1.1768e+00 5.7486e+02 -4.5428e+01 1.1498e+05 3.4043e+02 1.5592e+00 
0.000 0.162 1.1768e+00 5.7486e+02 -4.5428e+01 1.1498e+05 3.4043e+02 1.5592e+00 
0.000 0.168 1.1768e+00 5.7486e+02 -4.5428e+01 1.1498e+05 3.4043e+02 1.5592e+00 
0.000 0.174 1.1768e+00 5.7486e+02 -4.5428e+01 1.1498e+05 3.4043e+02 1.5592e+00 
0.000 0.180 1.1768e+00 5.7486e+02 -4.5428e+01 1.1498e+05 3.4043e+02 1.5592e+00 
0.000 0.186 1.1768e+00 5.7486e+02 -4.5428e+01 1.1498e+05 3.4043e+02 1.5592e+00 
0.000 0.192 1.1768e+00 5.7486e+02 -4.5428e+01 1.1498e+05 3.4043e+02 1.5592e+00 
0.000 0.198 1.1768e+00 5.7486e+02 -4.5428e+01 1.1498e+05 3.4043e+02 1.5592e+00 
0.000 0.204 1.1768e+00 5.7486e+02 -4.5428e+01 1.1498e+05 3.4043e+02 1.5592e+00 
0.000 0.210 1.1768e+00 5.7486e+02 -4.5428e+01 1.1498e+05 3.4043e+02 1.5592e+00 
0.000 0.216 1.1768e+00 5.7486e+02 -4.5428e+01 1.1498e+05 3.4043e+02 1.5592e+00 
0.000 0.222 1.1768e+00 5.7486e+02 -4.5428e+01 1.1498e+05 3.4043e+02 1.5592e+00 
0.000 0.228 1.1768e+00 5.7486e+02 -4.5428e+01 1.1498e+05 3.4043e+02 1.5592e+00 
0.000 0.234 1.1768e+00 5.7486e+02 -4.5428e+01 1.1498e+05 3.4043e+02 1.5592e+00 
0.000 0.240 1.1768e+00 5.7486e+02 -4.5428e+01 1.1498e+05 3.4043e+02 1.5592e+00 
0.000 0.246 1.1768e+00 5.7486e+02 -4.5428e+01 1.1498e+05 3.4043e+02 1.5592e+00 
0.000 0.252 1.1768e+00 5.7486e+02 -4.5428e+01 1.1498e+05 3.4043e+02 1.5592e+00 
0.000 0.258 1.1768e+00 5.7486e+02 -4.5428e+01 1.1498e+05 3.4043e+02 1.5592e+00 
0.000 0.264 1.1768e+00 5.7486e+02 -4.5428e+01 1.1498e+05 3.4043e+02 1.5592e+00 
0.000 0.270 1.1768e+00 5.7486e+02 -4.5428e+01 1.1498e+05 3.4043e+02 1.5592e+00 
0.000 0.276 1.1768e+00 5.7486e+02 -4.5428e+01 1.1498e+05 3.4043e+02 1.5592e+00 
0.000 0.282 1.1768e+00 5.7486e+02 -4.5428e+01 1.1498e+05 3.4043e+02 1.5592e+00 
0.000 0.288 1.1768e+00 5.7486e+02 -4.5428e+01 1.1498e+05 3.4043e+02 1.5592e+00 
0.000 0.294 1.1768e+00 5.7486e+02 -4.5428e+01 1.1498e+05 3.4043e+02 1.5592e+00 
0.004 0.000 6.9261e-01 6.5699e+02 6.2545e+01 3.8657e+04 1.9447e+02 2.3610e+00 
0.004 0.006 7.6858e-01 6.4526e+02 1.0600e+02 5.0183e+04 2.2750e+02 2.1628e+00 
0.004 0.012 7.7057e-01 6.4200e+02 7.4881e+01 4.7229e+04 2.1356e+02 2.2065e+00 
0.004 0.018 7.9211e-01 6.4214e+02 9.0295e+01 5.0893e+04 2.2387e+02 2.1621e+00 
0.004 0.024 7.7745e-01 6.3966e+02 7.9553e+01 4.8408e+04 2.1695e+02 2.1832e+00 
0.004 0.030 7.8874e-01 6.4076e+02 8.6814e+01 5.0130e+04 2.2145e+02 2.1677e+00 
0.004 0.036 7.8013e-01 6.3963e+02 8.1482e+01 4.8865e+04 2.1825e+02 2.1774e+00 
0.004 0.042 7.8592e-01 6.4026e+02 8.5108e+01 4.9694e+04 2.2032e+02 2.1708e+00 
0.004 0.048 7.8177e-01 6.3979e+02 8.2535e+01 4.9111e+04 2.1889e+02 2.1752e+00 
0.004 0.054 7.8451e-01 6.4007e+02 8.4255e+01 4.9492e+04 2.1981e+02 2.1723e+00 
0.004 0.060 7.8264e-01 6.3989e+02 8.3082e+01 4.9234e+04 2.1919e+02 2.1743e+00 
0.004 0.066 7.8386e-01 6.4000e+02 8.3856e+01 4.9402e+04 2.1960e+02 2.1730e+00 
0.004 0.072 7.8305e-01 6.3993e+02 8.3342e+01 4.9291e+04 2.1933e+02 2.1738e+00 
0.004 0.078 7.8358e-01 6.3997e+02 8.3677e+01 4.9363e+04 2.1950e+02 2.1733e+00 
0.004 0.084 7.8324e-01 6.3994e+02 8.3458e+01 4.9317e+04 2.1939e+02 2.1737e+00 
0.004 0.090 7.8346e-01 6.3996e+02 8.3599e+01 4.9346e+04 2.1946e+02 2.1734e+00 
0.004 0.096 7.8332e-01 6.3995e+02 8.3508e+01 4.9327e+04 2.1942e+02 2.1736e+00 
0.004 0.102 7.8341e-01 6.3996e+02 8.3567e+01 4.9339e+04 2.1945e+02 2.1735e+00 
0.004 0.108 7.8335e-01 6.3995e+02 8.3529e+01 4.9332e+04 2.1943e+02 2.1735e+00 
0.004 0.114 7.8338e-01 6.3995e+02 8.3553e+01 4.9337e+04 2.1944e+02 2.1735e+00 
0.004 0.120 7.8336e-01 6.3995e+02 8.3538e+01 4.9333e+04 2.1943e+02 2.1735e+00 
0.004 0.126 7.8338e-01 6.3995e+02 8.3548e+01 4.9335e+04 2.1944e+02 2.1735e+00 
0.004 0.132 7.8337e-01 6.3995e+02 8.3541e+01 4.9334e+04 2.1943e+02 2.1735e+00 
0.004 0.138 7.8337e-01 6.3995e+02 8.3545e+01 4.9335e+04 2.1943e+02 2.1735e+00 
0.004 0.144 7.8337e-01 6.3995e+02 8.3543e+01 4.9335e+04 2.1943e+02 2.1735e+00 
0.004 0.150 7.8337e-01 6.3995e+02 8.3544e+01 4.9335e+04 2.1943e+02 2.1735e+00 
0.004 0.156 7.8337e-01 6.3995e+02 8.3543e+01 4.9335e+04 2.1943e+02 2.1735e+00 
0.004 0.162 7.8337e-01 6.3995e+02 8.3544e+01 4.9335e+04 2.1943e+02 2.1735e+00 
0.004 0.168 7.8337e-01 6.3995e+02 8.3544e+01 4.9335e+04 2.1943e+02 2.1735e+00 
0.004 0.174 7.8337e-01 6.3995e+02 8.3544e+01 4.9335e+04 2.1943e+02 2.1735e+00 
0.004 0.180 7.8337e-01 6.3995e+02 8.3544e+01 4.9335e+04 2.1943e+02 2.1735e+00 
0.004 0.186 7.8337e-01 6.3995e+02 8.3544e+01 4.9335e+04 2.1943e+02 2.1735e+00 
0.004 0.192 7.8337e-01 6.3995e+02 8.3544e+01 4.9335e+04 2.1943e+02 2.1735e+00 
0.004 0.198 7.8337e-01 6.3995e+02 8.3544e+01 4.9335e+04 2.1943e+02 2.1735e+00 
0.004 0.204 7.8337e-01 6.3995e+02 8.3544e+01 4.9335e+04 2.1943e+02 2.1735e+00 
0.004 0.210 7.8337e-01 6.3995e+02 8.3544e+01 4.9335e+04 2.1943e+02 2.1735e+00 
0.004 0.216 7.8337e-01 6.3995e+02 8.3544e+01 4.9335e+04 2.1943e+02 2.1735e+00 
0.004 0.222 7.8337e-01 6.3995e+02 8.3544e+01 4.9335e+04 2.1943e+02 2.1735e+00 
0.004 0.228 7.8337e-01 6.3995e+02 8.3544e+01 4.9335e+04 2.1943e+02 2.1735e+00 
0.004 0.234 7.8337e-01 6.3995e+02 8.3544e+01 4.9335e+04 2.1943e+02 2.1735e+00 
0.004 0.240 7.8337e-01 6.3995e+02 8.3544e+01 4.9335e+04 2.1943e+02 2.1735e+00 
0.004 0.246 7.8337e-01 6.3995e+02 8.3544e+01 4.9335e+04 2.1943e+02 2.1735e+00 
0.004 0.252 7.8337e-01 6.3995e+02 8.3544e+01 4.9335e+04 2.1943e+02 2.1735e+00 
0.004 0.258 7.8337e-01 6.3995e+02 8.3544e+01 4.9335e+04 2.1943e+02 2.1735e+00 
0.004 0.264 7.8337e-01 6.3995e+02 8.3544e+01 4.9335e+04 2.1943e+02 2.1735e+00 
0.004 0.270 7.8337e-01 6.3995e+02 8.3544e+01 4.9335e+04 2.1943e+02 2.1735e+00 
0.004 0.276 7.8337e-01 6.3995e+02 8.3544e+01 4.9335e+04 2.1943e+02 2.1735e+00 
0.004 0.282 7.8337e-01 6.3995e+02 8.3544e+01 4.9335e+04 2.1943e+02 2.1735e+00 
0.004 0.288 7.8337e-01 6.3995e+02 8.3544e+01 4.9335e+04 2.1943e+02 2.1735e+00 
0.004 0.294 7.8337e-01 6.3995e+02 8.3544e+01 4.9335e+04 2.1943e+02 2.1735e+00 
0.008 0.000 1.1112e+00 6.3013e+02 -5.4090e+01 9.6285e+04 3.0190e+02 1.8159e+00 
0.008 0.006 1.1125e+00 6.2949e+02 -1.9101e+01 9.5764e+04 2.9993e+02 1.8141e+00 
0.008 0.012 1.2798e+00 6.3597e+02 -1.9791e+01 1.1744e+05 3.1974e+02 1.7752e+00 
0.008 0.018 1.2343e+00 6.3286e+02 -2.7479e+01 1.0995e+05 3.1038e+02 1.7938e+00 
0.008 0.024 1.2921e+00 6.3698e+02 -1.2793e+01 1.1937e+05 3.2189e+02 1.7715e+00 
0.008 0.030 1.2617e+00 6.3457e+02 -2.3780e+01 1.1399e+05 3.1479e+02 1.7855e+00 
0.008 0.036 1.2878e+00 6.3667e+02 -1.3531e+01 1.1865e+05 3.2103e+02 1.7731e+00 
0.008 0.042 1.2710e+00 6.3536e+02 -2.0859e+01 1.1556e+05 3.1680e+02 1.7818e+00 
0.008 0.048 1.2837e+00 6.3632e+02 -1.5122e+01 1.1792e+05 3.2006e+02 1.7749e+00 
0.008 0.054 1.2750e+00 6.3571e+02 -1.9171e+01 1.1629e+05 3.1779e+02 1.7798e+00 
0.008 0.060 1.2812e+00 6.3612e+02 -1.6219e+01 1.1746e+05 3.1945e+02 1.7761e+00 
0.008 0.066 1.2770e+00 6.3586e+02 -1.8277e+01 1.1665e+05 3.1829e+02 1.7788e+00 
0.008 0.072 1.2799e+00 6.3603e+02 -1.6829e+01 1.1722e+05 3.1911e+02 1.7769e+00 
0.008 0.078 1.2779e+00 6.3592e+02 -1.7826e+01 1.1683e+05 3.1854e+02 1.7782e+00 
0.008 0.084 1.2793e+00 6.3599e+02 -1.7138e+01 1.1710e+05 3.1894e+02 1.7773e+00 
0.008 0.090 1.2784e+00 6.3595e+02 -1.7607e+01 1.1691e+05 3.1867e+02 1.7779e+00 
0.008 0.096 1.2790e+00 6.3598e+02 -1.7288e+01 1.1704e+05 3.1885e+02 1.7775e+00 
0.008 0.102 1.2786e+00 6.3596e+02 -1.7504e+01 1.1696e+05 3.1873e+02 1.7778e+00 
0.008 0.108 1.2788e+00 6.3597e+02 -1.7359e+01 1.1701e+05 3.1881e+02 1.7776e+00 
0.008 0.114 1.2786e+00 6.3596e+02 -1.7456e+01 1.1697e+05 3.1875e+02 1.7777e+00 
0.008 0.120 1.2788e+00 6.3597e+02 -1.7391e+01 1.1700e+05 3.1879e+02 1.7776e+00 
0.008 0.126 1.2787e+00 6.3596e+02 -1.7434e+01 1.1698e+05 3.1877e+02 1.7777e+00 
0.008 0.132 1.2787e+00 6.3597e+02 -1.7406e+01 1.1699e+05 3.1878e+02 1.7776e+00 
0.008 0.138 1.2787e+00 6.3597e+02 -1.7425e+01 1.1699e+05 3.1877e+02 1.7777e+00 
0.008 0.144 1.2787e+00 6.3597e+02 -1.7412e+01 1.1699e+05 3.1878e+02 1.7777e+00 
0.008 0.150 1.2787e+00 6.3597e+02 -1.7420e+01 1.1699e+05 3.1877e+02 1.7777e+00 
0.008 0.156 1.2787e+00 6.3597e+02 -1.7415e+01 1.1699e+05 3.1878e+02 1.7777e+00 
0.008 0.162 1.2787e+00 6.3597e+02 -1.7418e+01 1.1699e+05 3.1878e+02 1.7777e+00 
0.008 0.168 1.2787e+00 6.3597e+02 -1.7416e+01 1.1699e+05 3.1878e+02 1.7777e+00 
0.008 0.174 1.2787e+00 6.3597e+02 -1.7418e+01 1.1699e+05 3.1878e+02 1.7777e+00 
0.008 0.180 1.2787e+00 6.3597e+02 -1.7417e+01 1.1699e+05 3.1878e+02 1.7777e+00 
0.008 0.186 1.2787e+00 6.3597e+02 -1.7417e+01 1.1699e+05 3.1878e+02 1.7777e+00 
0.008 0.192 1.2787e+00 6.3597e+02 -1.7417e+01 1.1699e+05 3.1878e+02 1.7777e+00 
0.008 0.198 1.2787e+00 6.3597e+02 -1.7417e+01 1.1699e+05 3.1878e+02 1.7777e+00 
0.008 0.204 1.2787e+00 6.3597e+02 -1.7417e+01 1.1699e+05 3.1878e+02 1.7777e+00 
0.008 0.210 1.2787e+00 6.3597e+02 -1.7417e+01 1.1699e+05 3.1878e+02 1.7777e+00 
0.008 0.216 1.2787e+00 6.3597e+02 -1.7417e+01 1.1699e+05 3.1878e+02 1.7777e+00 
0.008 0.222 1.2787e+00 6.3597e+02 -1.7417e+01 1.1699e+05 3.1878e+02 1.7777e+00 
0.008 0.228 1.2787e+00 6.3597e+02 -1.7417e+01 1.1699e+05 3.1878e+02 1.7777e+00 
0.008 0.234 1.2787e+00 6.3597e+02 -1.7417e+01 1.1699e+05 3.1878e+02 1.7777e+00 
0.008 0.240 1.2787e+00 6.3597e+02 -1.7417e+01 1.1699e+05 3.1878e+02 1.7777e+00 
0.008 0.246 1.2787e+00 6.3597e+02 -1.7417e+01 1.1699e+05 3.1878e+02 1.7777e+00 
0.008 0.252 1.2787e+00 6.3597e+02 -1.7417e+01 1.1699e+05 3.1878e+02 1.7777e+00 
0.008 0.258 1.2787e+00 6.3597e+02 -1.7417e+01 1.1699e+05 3.1878e+02 1.7777e+00 
0.008 0.264 1.2787e+00 6.3597e+02 -1.7417e+01 1.1699e+05 3.1878e+02 1.7777e+00 
0.008 0.270 1.2787e+00 6.3597e+02 -1.7417e+01 1.1699e+05 3.1878e+02 1.7777e+00 
0.008 0.276 1.2787e+00 6.3597e+02 -1.7417e+01 1.1699e+05 3.1878e+02 1.7777e+00 
0.008 0.282 1.2787e+00 6.3597e+02 -1.7417e+01 1.1699e+05 3.1878e+02 1.7777e+00 
0.008 0.288 1.2787e+00 6.3597e+02 -1.7417e+01 1.1699e+05 3.1878e+02 1.7777e+00 
0.008 0.294 1.2787e+00 6.3597e+02 -1.7417e+01 1.1699e+05 3.1878e+02 1.7777e+00 
0.012 0.000 8.9166e-01 5.9450e+02 -1.8615e+01 6.5878e+04 2.5743e+02 1.8494e+00 
0.012 0.006 9.7542e-01 6.0490e+02 3.9590e+01 7.8338e+04 2.7983e+02 1.8078e+00 
0.012 0.012 9.7263e-01 5.8192e+02 2.5685e+00 7.4344e+04 2.6633e+02 1.7789e+00 
0.012 0.018 1.0251e+00 5.9513e+02 2.9373e+01 8.2711e+04 2.8113e+02 1.7729e+00 
0.012 0.024 9.7420e-01 5.7994e+02 6.0019e+00 7.4679e+04 2.6709e+02 1.7704e+00 
0.012 0.030 1.0183e+00 5.8987e+02 2.6239e+01 8.1558e+04 2.7906e+02 1.7633e+00 
0.012 0.036 9.7947e-01 5.8140e+02 8.6374e+00 7.5529e+04 2.6868e+02 1.7697e+00 
0.012 0.042 1.0092e+00 5.8719e+02 2.2794e+01 8.0196e+04 2.7688e+02 1.7618e+00 
0.012 0.048 9.8562e-01 5.8284e+02 1.1455e+01 7.6484e+04 2.7038e+02 1.7686e+00 
0.012 0.054 1.0030e+00 5.8584e+02 2.0100e+01 7.9250e+04 2.7530e+02 1.7625e+00 
0.012 0.060 9.9003e-01 5.8371e+02 1.3569e+01 7.7176e+04 2.7161e+02 1.7674e+00 
0.012 0.066 9.9938e-01 5.8517e+02 1.8372e+01 7.8681e+04 2.7432e+02 1.7634e+00 
0.012 0.072 9.9265e-01 5.8416e+02 1.4875e+01 7.7592e+04 2.7236e+02 1.7664e+00 
0.012 0.078 9.9740e-01 5.8485e+02 1.7381e+01 7.8366e+04 2.7376e+02 1.7642e+00 
0.012 0.084 9.9406e-01 5.8438e+02 1.5602e+01 7.7819e+04 2.7277e+02 1.7658e+00 
0.012 0.090 9.9638e-01 5.8470e+02 1.6852e+01 7.8201e+04 2.7347e+02 1.7646e+00 
0.012 0.096 9.9477e-01 5.8449e+02 1.5980e+01 7.7935e+04 2.7298e+02 1.7655e+00 
0.012 0.102 9.9588e-01 5.8463e+02 1.6584e+01 7.8119e+04 2.7332e+02 1.7649e+00 
0.012 0.108 9.9512e-01 5.8453e+02 1.6169e+01 7.7993e+04 2.7308e+02 1.7653e+00 
0.012 0.114 9.9563e-01 5.8459e+02 1.6453e+01 7.8079e+04 2.7324e+02 1.7650e+00 
0.012 0.120 9.9529e-01 5.8455e+02 1.6260e+01 7.8021e+04 2.7314e+02 1.7652e+00 
0.012 0.126 9.9552e-01 5.8458e+02 1.6390e+01 7.8060e+04 2.7321e+02 1.7651e+00 
0.012 0.132 9.9536e-01 5.8456e+02 1.6302e+01 7.8033e+04 2.7316e+02 1.7652e+00 
0.012 0.138 9.9547e-01 5.8457e+02 1.6361e+01 7.8051e+04 2.7319e+02 1.7651e+00 
0.012 0.144 9.9540e-01 5.8457e+02 1.6322e+01 7.8039e+04 2.7317e+02 1.7652e+00 
0.012 0.150 9.9545e-01 5.8457e+02 1.6348e+01 7.8047e+04 2.7319e+02 1.7651e+00 
0.012 0.156 9.9542e-01 5.8457e+02 1.6331e+01 7.8042e+04 2.7318e+02 1.7651e+00 
0.012 0.162 9.9544e-01 5.8457e+02 1.6342e+01 7.8045e+04 2.7318e+02 1.7651e+00 
0.012 0.168 9.9542e-01 5.8457e+02 1.6335e+01 7.8043e+04 2.7318e+02 1.7651e+00 
0.012 0.174 9.9543e-01 5.8457e+02 1.6340e+01 7.8045e+04 2.7318e+02 1.7651e+00 
0.012 0.180 9.9543e-01 5.8457e+02 1.6336e+01 7.8044e+04 2.7318e+02 1.7651e+00 
0.012 0.186 9.9543e-01 5.8457e+02 1.6339e+01 7.8044e+04 2.7318e+02 1.7651e+00 
0.012 0.192 9.9543e-01 5.8457e+02 1.6337e+01 7.8044e+04 2.7318e+02 1.7651e+00 
0.012 0.198 9.9543e-01 5.8457e+02 1.6338e+01 7.8044e+04 2.7318e+02 1.7651e+00 
0.012 0.204 9.9543e-01 5.8457e+02 1.6337e+01 7.8044e+04 2.7318e+02 1.7651e+00 
0.012 0.210 9.9543e-01 5.8457e+02 1.6338e+01 7.8044e+04 2.7318e+02 1.7651e+00 
0.012 0.216 9.9543e-01 5.8457e+02 1.6338e+01 7.8044e+04 2.7318e+02 1.7651e+00 
0.012 0.222 9.9543e-01 5.8457e+02 1.6338e+01 7.8044e+04 2.7318e+02 1.7651e+00 
0.012 0.228 9.9543e-01 5.8457e+02 1.6338e+01 7.8044e+04 2.7318e+02 1.7651e+00 
0.012 0.234 9.9543e-01 5.8457e+02 1.6338e+01 7.8044e+04 2.7318e+02 1.7651e+00 
0.012 0.240 9.9543e-01 5.8457e+02 1.6338e+01 7.8044e+04 2.7318e+02 1.7651e+00 
0.012 0.246 9.9543e-01 5.8457e+02 1.6338e+01 7.8044e+04 2.7318e+02 1.7651e+00 
0.012 0.252 9.9543e-01 5.8457e+02 1.6338e+01 7.8044e+04 2.7318e+02 1.7651e+00 
0.012 0.258 9.9543e-01 5.8457e+02 1.6338e+01 7.8044e+04 2.7318e+02 1.7651e+00 
0.012 0.264 9.9543e-01 5.8457e+02 1.6338e+01 7.8044e+04 2.7318e+02 1.7651e+00 
0.012 0.270 9.9543e-01 5.8457e+02 1.6338e+01 7.8044e+04 2.7318e+02 1.7651e+00 
0.012 0.276 9.9543e-01 5.8457e+02 1.6338e+01 7.8044e+04 2.7318e+02 1.7651e+00 
0.012 0.282 9.9543e-01 5.8457e+02 1.6338e+01 7.8044e+04 2.7318e+02 1.7651e+00 
0.012 0.288 9.9543e-01 5.8457e+02 1.6338e+01 7.8044e+04 2.7318e+02 1.7651e+00 
0.012 0.294 9.9543e-01 5.8457e+02 1.6338e+01 7.8044e+04 2.7318e+02 1.7651e+00 
0.016 0.000 1.1332e+00 6.5069e+02 -4.3386e+01 9.6079e+04 2.9542e+02 1.8928e+00 
0.016 0.006 1.1013e+00 6.3864e+02 -1.2472e+01 9.2281e+04 2.9196e+02 1.8650e+00 
0.016 0.012 1.3295e+00 6.5979e+02 -6.7296e+00 1.2068e+05 3.1629e+02 1.8509e+00 
0.016 0.018 1.2269e+00 6.4584e+02 -2.5629e+01 1.0577e+05 3.0037e+02 1.8605e+00 
0.016 0.024 1.3516e+00 6.6155e+02 3.8132e+00 1.2431e+05 3.2045e+02 1.8437e+00 
0.016 0.030 1.2631e+00 6.5042e+02 -2.2918e+01 1.1046e+05 3.0472e+02 1.8600e+00 
0.016 0.036 1.3443e+00 6.6035e+02 3.7268e+00 1.2343e+05 3.1993e+02 1.8418e+00 
0.016 0.042 1.2818e+00 6.5322e+02 -1.8445e+01 1.1320e+05 3.0772e+02 1.8584e+00 
0.016 0.048 1.3333e+00 6.5886e+02 7.6927e-01 1.2180e+05 3.1830e+02 1.8424e+00 
0.016 0.054 1.2937e+00 6.5483e+02 -1.4531e+01 1.1508e+05 3.0995e+02 1.8560e+00 
0.016 0.060 1.3245e+00 6.5782e+02 -2.1775e+00 1.2041e+05 3.1674e+02 1.8440e+00 
0.016 0.066 1.3013e+00 6.5572e+02 -1.1707e+01 1.1634e+05 3.1150e+02 1.8538e+00 
0.016 0.072 1.3188e+00 6.5722e+02 -4.3403e+00 1.1945e+05 3.1558e+02 1.8457e+00 
0.016 0.078 1.3059e+00 6.5618e+02 -9.8834e+00 1.1712e+05 3.1250e+02 1.8520e+00 
0.016 0.084 1.3154e+00 6.5690e+02 -5.7241e+00 1.1885e+05 3.1483e+02 1.8470e+00 
0.016 0.090 1.3085e+00 6.5640e+02 -8.7918e+00 1.1758e+05 3.1310e+02 1.8508e+00 
0.016 0.096 1.3135e+00 6.5674e+02 -6.5398e+00 1.1851e+05 3.1438e+02 1.8479e+00 
0.016 0.102 1.3099e+00 6.5651e+02 -8.1738e+00 1.1784e+05 3.1345e+02 1.8501e+00 
0.016 0.108 1.3124e+00 6.5667e+02 -6.9943e+00 1.1832e+05 3.1412e+02 1.8485e+00 
0.016 0.114 1.3106e+00 6.5657e+02 -7.8385e+00 1.1797e+05 3.1364e+02 1.8496e+00 
0.016 0.120 1.3119e+00 6.5663e+02 -7.2373e+00 1.1822e+05 3.1399e+02 1.8488e+00 
0.016 0.126 1.3110e+00 6.5659e+02 -7.6627e+00 1.1805e+05 3.1374e+02 1.8494e+00 
0.016 0.132 1.3116e+00 6.5662e+02 -7.3631e+00 1.1817e+05 3.1391e+02 1.8490e+00 
0.016 0.138 1.3112e+00 6.5660e+02 -7.5731e+00 1.1808e+05 3.1379e+02 1.8493e+00 
0.016 0.144 1.3115e+00 6.5661e+02 -7.4265e+00 1.1814e+05 3.1388e+02 1.8491e+00 
0.016 0.150 1.3113e+00 6.5660e+02 -7.5284e+00 1.1810e+05 3.1382e+02 1.8492e+00 
0.016 0.156 1.3114e+00 6.5661e+02 -7.4578e+00 1.1813e+05 3.1386e+02 1.8491e+00 
0.016 0.162 1.3113e+00 6.5661e+02 -7.5065e+00 1.1811e+05 3.1383e+02 1.8492e+00 
0.016 0.168 1.3114e+00 6.5661e+02 -7.4730e+00 1.1812e+05 3.1385e+02 1.8491e+00 
0.016 0.174 1.3113e+00 6.5661e+02 -7.4960e+00 1.1811e+05 3.1384e+02 1.8492e+00 
0.016 0.180 1.3114e+00 6.5661e+02 -7.4803e+00 1.1812e+05 3.1385e+02 1.8491e+00 
0.016 0.186 1.3114e+00 6.5661e+02 -7.4910e+00 1.1812e+05 3.1384e+02 1.8492e+00 
0.016 0.192 1.3114e+00 6.5661e+02 -7.4837e+00 1.1812e+05 3.1384e+02 1.8491e+00 
0.016 0.198 1.3114e+00 6.5661e+02 -7.4886e+00 1.1812e+05 3.1384e+02 1.8492e+00 
0.016 0.204 1.3114e+00 6.5661e+02 -7.4853e+00 1.1812e+05 3.1384e+02 1.8492e+00 
0.016 0.210 1.3114e+00 6.5661e+02 -7.4876e+00 1.1812e+05 3.1384e+02 1.8492e+00 
0.016 0.216 1.3114e+00 6.5661e+02 -7.4860e+00 1.1812e+05 3.1384e+02 1.8492e+00 
0.016 0.222 1.3114e+00 6.5661e+02 -7.4871e+00 1.1812e+05 3.1384e+02 1.8492e+00 
0.016 0.228 1.3114e+00 6.5661e+02 -7.4864e+00 1.1812e+05 3.1384e+02 1.8492e+00 
0.016 0.234 1.3114e+00 6.5661e+02 -7.4868e+00 1.1812e+05 3.1384e+02 1.8492e+00 
0.016 0.240 1.3114e+00 6.5661e+02 -7.4865e+00 1.1812e+05 3.1384e+02 1.8492e+00 
0.016 0.246 1.3114e+00 6.5661e+02 -7.4867e+00 1.1812e+05 3.1384e+02 1.8492e+00 
0.016 0.252 1.3114e+00 6.5661e+02 -7.4866e+00 1.1812e+05 3.1384e+02 1.8492e+00 
0.016 0.258 1.3114e+00 6.5661e+02 -7.4867e+00 1.1812e+05 3.1384e+02 1.8492e+00 
0.016 0.264 1.3114e+00 6.5661e+02 -7.4866e+00 1.1812e+05 3.1384e+02 1.8492e+00 
0.016 0.270 1.3114e+00 6.5661e+02 -7.4867e+00 1.1812e+05 3.1384e+02 1.8492e+00 
0.016 0.276 1.3114e+00 6.5661e+02 -7.4866e+00 1.1812e+05 3.1384e+02 1.8492e+00 
0.016 0.282 1.3114e+00 6.5661e+02 -7.4867e+00 1.1812e+05 3.1384e+02 1.8492e+00 
0.016 0.288 1.3114e+00 6.5661e+02 -7.4866e+00 1.1812e+05 3.1384e+02 1.8492e+00 
0.016 0.294 1.3114e+00 6.5661e+02 -7.4866e+00 1.1812e+05 3.1384e+02 1.8492e+00 
0.020 0.000 9.1370e-01 5.8336e+02 -2.8252e+01 6.9301e+04 2.6427e+02 1.7923e+00 
0.020 0.006 1.0256e+00 6.0887e+02 3.0124e+01 8.4764e+04 2.8798e+02 1.7922e+00 
0.020 0.012 9.6965e-01 5.6196e+02 -1.1410e+01 7.4198e+04 2.6662e+02 1.7173e+00 
0.020 0.018 1.0919e+00 5.9826e+02 2.7916e+01 9.1975e+04 2.9349e+02 1.7441e+00 
0.020 0.024 9.5465e-01 5.5613e+02 -1.5511e+01 7.1782e+04 2.6199e+02 1.7147e+00 
0.020 0.030 1.0831e+00 5.8998e+02 2.9235e+01 9.0989e+04 2.9270e+02 1.7225e+00 
0.020 0.036 9.6039e-01 5.5937e+02 -1.5197e+01 7.2503e+04 2.6304e+02 1.7212e+00 
0.020 0.042 1.0643e+00 5.8380e+02 2.5693e+01 8.8452e+04 2.8958e+02 1.7131e+00 
0.020 0.048 9.7516e-01 5.6409e+02 -1.0266e+01 7.4695e+04 2.6689e+02 1.7228e+00 
0.020 0.054 1.0471e+00 5.7945e+02 2.0465e+01 8.5975e+04 2.8610e+02 1.7101e+00 
0.020 0.060 9.8916e-01 5.6772e+02 -4.6967e+00 7.6846e+04 2.7069e+02 1.7215e+00 
0.020 0.066 1.0343e+00 5.7662e+02 1.5720e+01 8.4056e+04 2.8316e+02 1.7101e+00 
0.020 0.072 9.9939e-01 5.7002e+02 -2.8837e-01 7.8450e+04 2.7351e+02 1.7195e+00 
0.020 0.078 1.0259e+00 5.7491e+02 1.2211e+01 8.2748e+04 2.8104e+02 1.7112e+00 
0.020 0.084 1.0060e+00 5.7136e+02 2.6938e+00 7.9498e+04 2.7536e+02 1.7177e+00 
0.020 0.090 1.0208e+00 5.7394e+02 9.9118e+00 8.1931e+04 2.7966e+02 1.7124e+00 
0.020 0.096 1.0099e+00 5.7209e+02 4.5348e+00 8.0130e+04 2.7647e+02 1.7165e+00 
0.020 0.102 1.0178e+00 5.7341e+02 8.5220e+00 8.1453e+04 2.7884e+02 1.7133e+00 
0.020 0.108 1.0120e+00 5.7248e+02 5.6030e+00 8.0490e+04 2.7711e+02 1.7157e+00 
0.020 0.114 1.0162e+00 5.7314e+02 7.7295e+00 8.1187e+04 2.7837e+02 1.7139e+00 
0.020 0.120 1.0132e+00 5.7268e+02 6.1947e+00 8.0686e+04 2.7747e+02 1.7152e+00 
0.020 0.126 1.0154e+00 5.7300e+02 7.2970e+00 8.1044e+04 2.7811e+02 1.7142e+00 
0.020 0.132 1.0139e+00 5.7277e+02 6.5109e+00 8.0790e+04 2.7765e+02 1.7150e+00 
0.020 0.138 1.0149e+00 5.7293e+02 7.0689e+00 8.0970e+04 2.7798e+02 1.7144e+00 
0.020 0.144 1.0142e+00 5.7282e+02 6.6751e+00 8.0843e+04 2.7775e+02 1.7148e+00 
0.020 0.150 1.0147e+00 5.7290e+02 6.9519e+00 8.0932e+04 2.7791e+02 1.7146e+00 
0.020 0.156 1.0143e+00 5.7285e+02 6.7582e+00 8.0870e+04 2.7780e+02 1.7147e+00 
0.020 0.162 1.0146e+00 5.7288e+02 6.8932e+00 8.0913e+04 2.7788e+02 1.7146e+00 
0.020 0.168 1.0144e+00 5.7286e+02 6.7995e+00 8.0883e+04 2.7782e+02 1.7147e+00 
0.020 0.174 1.0145e+00 5.7287e+02 6.8644e+00 8.0904e+04 2.7786e+02 1.7146e+00 
0.020 0.180 1.0144e+00 5.7286e+02 6.8196e+00 8.0890e+04 2.7783e+02 1.7147e+00 
0.020 0.186 1.0145e+00 5.7287e+02 6.8504e+00 8.0899e+04 2.7785e+02 1.7146e+00 
0.020 0.192 1.0145e+00 5.7286e+02 6.8293e+00 8.0893e+04 2.7784e+02 1.7147e+00 
0.020 0.198 1.0145e+00 5.7287e+02 6.8437e+00 8.0897e+04 2.7785e+02 1.7147e+00 
0.020 0.204 1.0145e+00 5.7287e+02 6.8338e+00 8.0894e+04 2.7784e+02 1.7147e+00 
0.020 0.210 1.0145e+00 5.7287e+02 6.8406e+00 8.0896e+04 2.7785e+02 1.7147e+00 
0.020 0.216 1.0145e+00 5.7287e+02 6.8360e+00 8.0895e+04 2.7784e+02 1.7147e+00 
0.020 0.222 1.0145e+00 5.7287e+02 6.8391e+00 8.0896e+04 2.7784e+02 1.7147e+00 
0.020 0.228 1.0145e+00 5.7287e+02 6.8370e+00 8.0895e+04 2.7784e+02 1.7147e+00 
0.020 0.234 1.0145e+00 5.7287e+02 6.8384e+00 8.0896e+04 2.7784e+02 1.7147e+00 
0.020 0.240 1.0145e+00 5.7287e+02 6.8375e+00 8.0895e+04 2.7784e+02 1.7147e+00 
0.020 0.246 1.0145e+00 5.7287e+02 6.8381e+00 8.0895e+04 2.7784e+02 1.7147e+00 
0.020 0.252 1.0145e+00 5.7287e+02 6.8377e+00 8.0895e+04 2.7784e+02 1.7147e+00 
0.020 0.258 1.0145e+00 5.7287e+02 6.8380e+00 8.0895e+04 2.7784e+02 1.7147e+00 
0.020 0.264 1.0145e+00 5.7287e+02 6.8378e+00 8.0895e+04 2.7784e+02 1.7147e+00 
0.020 0.270 1.0145e+00 5.7287e+02 6.8379e+00 8.0895e+04 2.7784e+02 1.7147e+00 
0.020 0.276 1.0145e+00 5.7287e+02 6.8378e+00 8.0895e+04 2.7784e+02 1.7147e+00 
0.020 0.282 1.0145e+00 5.7287e+02 6.8379e+00 8.0895e+04 2.7784e+02 1.7147e+00 
0.020 0.288 1.0145e+00 5.7287e+02 6.8378e+00 8.0895e+04 2.7784e+02 1.7147e+00 
0.020 0.294 1.0145e+00 5.7287e+02 6.8379e+00 8.0895e+04 2.7784e+02 1.7147e+00 
0.024 0.000 1.1531e+00 6.5920e+02 -4.0405e+01 9.7418e+04 2.9437e+02 1.9204e+00 
0.024 0.006 1.0779e+00 6.3480e+02 -1.0955e+01 8.9070e+04 2.8791e+02 1.8667e+00 
0.024 0.012 1.3891e+00 6.7436e+02 9.6908e-02 1.2687e+05 3.1823e+02 1.8859e+00 
0.024 0.018 1.1878e+00 6.4140e+02 -3.3064e+01 9.9552e+04 2.9203e+02 1.8749e+00 
0.024 0.024 1.4371e+00 6.7913e+02 1.7127e+01 1.3427e+05 3.2555e+02 1.8783e+00 
0.024 0.030 1.2221e+00 6.4783e+02 -3.6471e+01 1.0307e+05 2.9388e+02 1.8882e+00 
0.024 0.036 1.4339e+00 6.7778e+02 2.1167e+01 1.3452e+05 3.2689e+02 1.8711e+00 
0.024 0.042 1.2498e+00 6.5370e+02 -3.2841e+01 1.0655e+05 2.9705e+02 1.8945e+00 
0.024 0.048 1.4136e+00 6.7458e+02 1.8562e+01 1.3204e+05 3.2546e+02 1.8661e+00 
0.024 0.054 1.2758e+00 6.5833e+02 -2.6238e+01 1.1025e+05 3.0109e+02 1.8942e+00 
0.024 0.060 1.3913e+00 6.7156e+02 1.3419e+01 1.2893e+05 3.2289e+02 1.8648e+00 
0.024 0.066 1.2974e+00 6.6152e+02 -1.9538e+01 1.1354e+05 3.0492e+02 1.8907e+00 
0.024 0.072 1.3731e+00 6.6934e+02 8.1769e+00 1.2619e+05 3.2022e+02 1.8662e+00 
0.024 0.078 1.3132e+00 6.6353e+02 -1.4095e+01 1.1607e+05 3.0797e+02 1.8867e+00 
0.024 0.084 1.3601e+00 6.6791e+02 3.9243e+00 1.2412e+05 3.1798e+02 1.8686e+00 
0.024 0.090 1.3239e+00 6.6470e+02 -1.0192e+01 1.1784e+05 3.1014e+02 1.8832e+00 
0.024 0.096 1.3516e+00 6.6706e+02 8.9264e-01 1.2271e+05 3.1635e+02 1.8710e+00 
0.024 0.102 1.3306e+00 6.6536e+02 -7.6174e+00 1.1898e+05 3.1158e+02 1.8806e+00 
0.024 0.108 1.3464e+00 6.6658e+02 -1.0901e+00 1.2182e+05 3.1527e+02 1.8729e+00 
0.024 0.114 1.3346e+00 6.6571e+02 -6.0173e+00 1.1969e+05 3.1248e+02 1.8789e+00 
0.024 0.120 1.3433e+00 6.6633e+02 -2.3084e+00 1.2128e+05 3.1459e+02 1.8742e+00 
0.024 0.126 1.3369e+00 6.6590e+02 -5.0683e+00 1.2010e+05 3.1301e+02 1.8777e+00 
0.024 0.132 1.3416e+00 6.6620e+02 -3.0223e+00 1.2097e+05 3.1419e+02 1.8750e+00 
0.024 0.138 1.3382e+00 6.6599e+02 -4.5261e+00 1.2033e+05 3.1332e+02 1.8771e+00 
0.024 0.144 1.3407e+00 6.6614e+02 -3.4254e+00 1.2080e+05 3.1396e+02 1.8756e+00 
0.024 0.150 1.3389e+00 6.6604e+02 -4.2258e+00 1.2046e+05 3.1349e+02 1.8767e+00 
0.024 0.156 1.3401e+00 6.6611e+02 -3.6461e+00 1.2071e+05 3.1383e+02 1.8758e+00 
0.024 0.162 1.3392e+00 6.6606e+02 -4.0637e+00 1.2053e+05 3.1359e+02 1.8764e+00 
0.024 0.168 1.3399e+00 6.6609e+02 -3.7640e+00 1.2066e+05 3.1376e+02 1.8760e+00 
0.024 0.174 1.3394e+00 6.6607e+02 -3.9781e+00 1.2057e+05 3.1364e+02 1.8763e+00 
0.024 0.180 1.3397e+00 6.6608e+02 -3.8257e+00 1.2063e+05 3.1373e+02 1.8761e+00 
0.024 0.186 1.3395e+00 6.6607e+02 -3.9338e+00 1.2058e+05 3.1366e+02 1.8763e+00 
0.024 0.192 1.3397e+00 6.6608e+02 -3.8574e+00 1.2062e+05 3.1371e+02 1.8761e+00 
0.024 0.198 1.3396e+00 6.6608e+02 -3.9112e+00 1.2059e+05 3.1368e+02 1.8762e+00 
0.024 0.204 1.3396e+00 6.6608e+02 -3.8734e+00 1.2061e+05 3.1370e+02 1.8762e+00 
0.024 0.210 1.3396e+00 6.6608e+02 -3.8999e+00 1.2060e+05 3.1368e+02 1.8762e+00 
0.024 0.216 1.3396e+00 6.6608e+02 -3.8814e+00 1.2061e+05 3.1369e+02 1.8762e+00 
0.024 0.222 1.3396e+00 6.6608e+02 -3.8943e+00 1.2060e+05 3.1369e+02 1.8762e+00 
0.024 0.228 1.3396e+00 6.6608e+02 -3.8853e+00 1.2061e+05 3.1369e+02 1.8762e+00 
0.024 0.234 1.3396e+00 6.6608e+02 -3.8915e+00 1.2060e+05 3.1369e+02 1.8762e+00 
0.024 0.240 1.3396e+00 6.6608e+02 -3.8872e+00 1.2060e+05 3.1369e+02 1.8762e+00 
0.024 0.246 1.3396e+00 6.6608e+02 -3.8902e+00 1.2060e+05 3.1369e+02 1.8762e+00 
0.024 0.252 1.3396e+00 6.6608e+02 -3.8881e+00 1.2060e+05 3.1369e+02 1.8762e+00 
0.024 0.258 1.3396e+00 6.6608e+02 -3.8896e+00 1.2060e+05 3.1369e+02 1.8762e+00 
0.024 0.264 1.3396e+00 6.6608e+02 -3.8886e+00 1.2060e+05 3.1369e+02 1.8762e+00 
0.024 0.270 1.3396e+00 6.6608e+02 -3.8893e+00 1.2060e+05 3.1369e+02 1.8762e+00 
0.024 0.276 1.3396e+00 6.6608e+02 -3.8888e+00 1.2060e+05 3.1369e+02 1.8762e+00 
0.024 0.282 1.3396e+00 6.6608e+02 -3.8891e+00 1.2060e+05 3.1369e+02 1.8762e+00 
0.024 0.288 1.3396e+00 6.6608e+02 -3.8889e+00 1.2060e+05 3.1369e+02 1.8762e+00 
0.024 0.294 1.3396e+00 6.6608e+02 -3.8890e+00 1.2060e+05 3.1369e+02 1.8762e+00 
0.028 0.000 9.0216e-01 5.7574e+02 -3.0126e+01 6.8257e+04 2.6362e+02 1.7714e+00 
0.028 0.006 1.0599e+00 6.1783e+02 2.7731e+01 8.8970e+04 2.9249e+02 1.8040e+00 
0.028 0.012 9.1121e-01 5.3568e+02 -2.1224e+01 6.6522e+04 2.5437e+02 1.6769e+00 
0.028 0.018 1.1584e+00 6.1219e+02 3.5547e+01 1.0087e+05 3.0341e+02 1.7563e+00 
0.028 0.024 8.5615e-01 5.1455e+02 -4.2982e+01 5.7598e+04 2.3441e+02 1.6825e+00 
0.028 0.030 1.1637e+00 6.0460e+02 4.6512e+01 1.0230e+05 3.0632e+02 1.7284e+00 
0.028 0.036 8.4889e-01 5.1628e+02 -5.3844e+01 5.5911e+04 2.2949e+02 1.7094e+00 
0.028 0.042 1.1393e+00 5.9562e+02 4.7739e+01 9.9484e+04 3.0426e+02 1.7090e+00 
0.028 0.048 8.7243e-01 5.2762e+02 -4.8543e+01 5.9291e+04 2.3680e+02 1.7178e+00 
0.028 0.054 1.1049e+00 5.8660e+02 4.2037e+01 9.4963e+04 2.9947e+02 1.6954e+00 
0.028 0.060 9.0478e-01 5.3928e+02 -3.6402e+01 6.4247e+04 2.4742e+02 1.7143e+00 
0.028 0.066 1.0719e+00 5.7881e+02 3.3353e+01 9.0345e+04 2.9367e+02 1.6878e+00 
0.028 0.072 9.3420e-01 5.4815e+02 -2.4124e+01 6.8842e+04 2.5676e+02 1.7083e+00 
0.028 0.078 1.0455e+00 5.7287e+02 2.4656e+01 8.6471e+04 2.8819e+02 1.6850e+00 
0.028 0.084 9.5668e-01 5.5408e+02 -1.4315e+01 7.2392e+04 2.6366e+02 1.7029e+00 
0.028 0.090 1.0265e+00 5.6878e+02 1.7509e+01 8.3601e+04 2.8376e+02 1.6853e+00 
0.028 0.096 9.7216e-01 5.5776e+02 -7.3590e+00 7.4861e+04 2.6831e+02 1.6989e+00 
0.028 0.102 1.0140e+00 5.6617e+02 1.2326e+01 8.1653e+04 2.8056e+02 1.6867e+00 
0.028 0.108 9.8208e-01 5.5994e+02 -2.7855e+00 7.6457e+04 2.7126e+02 1.6961e+00 
0.028 0.114 1.0063e+00 5.6460e+02 8.8834e+00 8.0416e+04 2.7845e+02 1.6882e+00 
0.028 0.120 9.8811e-01 5.6118e+02 6.0508e-02 7.7435e+04 2.7306e+02 1.6942e+00 
0.028 0.126 1.0016e+00 5.6369e+02 6.7394e+00 7.9669e+04 2.7714e+02 1.6894e+00 
0.028 0.132 9.9162e-01 5.6187e+02 1.7563e+00 7.8010e+04 2.7411e+02 1.6930e+00 
0.028 0.138 9.9900e-01 5.6320e+02 5.4684e+00 7.9237e+04 2.7636e+02 1.6902e+00 
0.028 0.144 9.9360e-01 5.6224e+02 2.7314e+00 7.8336e+04 2.7471e+02 1.6923e+00 